/*--------------------------------*- C++ -*----------------------------------*\
| =========                 |                                                 |
| \\      /  F ield         | OpenFOAM: The Open Source CFD Toolbox           |
|  \\    /   O peration     | Version:  2312                                  |
|   \\  /    A nd           | Website:  www.openfoam.com                      |
|    \\/     M anipulation  |                                                 |
\*---------------------------------------------------------------------------*/
FoamFile
{
    version     2.0;
    format      ascii;
    arch        "LSB;label=32;scalar=64";
    class       volScalarField;
    location    "0.4";
    object      nut;
}
// * * * * * * * * * * * * * * * * * * * * * * * * * * * * * * * * * * * * * //

dimensions      [0 2 -1 0 0 0 0];

internalField   nonuniform List<scalar> 
32842
(
0.00056698
0.000567437
0.000566998
0.000566985
0.00113895
0.000566981
3.64658
2.07063
0.000566985
0.000566947
0.257137
0.754746
0.000566948
0.000566985
0.00056458
0.000566964
0.000566764
0.000566977
0.000566671
0.00111975
0.00120948
0.00169113
0.00108935
0.000566999
0.00115814
0.000566985
0.000566983
0.000901245
0.549627
0.000566665
0.945419
0.461652
10.5518
0.000566716
17.7001
4.17348
0.00137726
0.000569849
0.000568536
0.000566936
0.000566991
0.00120454
0.000566985
0.000566985
0.319692
0.000566579
1.77441
0.000566826
0.00118148
0.0863713
2.49317
0.000566985
0.575781
0.188454
0.000566994
0.00747278
0.000566985
0.474011
0.000566988
0.000566985
2.7406
0.552854
0.61701
0.001217
0.000567072
8.04628
0.000566989
0.686061
0.427673
0.000568645
0.000889814
2.26381
0.486545
0.000566985
0.000566985
0.000564792
0.159003
0.000566985
0.485709
0.855577
0.001131
0.000566985
0.000566985
0.541063
0.762558
0.000566985
0.000566985
0.0060972
0.11185
0.000566947
0.00116334
0.00116975
6.62123
0.000566358
0.000566985
0.000566685
0.472066
0.000565442
0.70291
0.000566985
0.000566985
0.0016514
0.00056906
0.444324
0.482875
0.442153
0.792006
0.000502402
0.513362
0.000567399
0.000566959
0.000566911
3.75928
0.000566956
0.000569204
0.00119141
0.530514
0.810091
0.000568772
0.000566842
0.000566862
0.000566947
0.00971143
0.000566996
0.000535483
0.481011
0.383756
0.000566898
5.35606
0.000566994
0.000566985
0.000537714
0.00196731
0.478638
0.00195146
0.000567023
0.00357913
0.117611
0.000566732
0.000566685
0.518658
0.000566737
0.515682
1.44811
0.000566897
0.000566734
10.2301
0.000566755
0.000566985
0.000566826
0.00058289
0.162698
0.00108379
1.42364
0.000567085
0.000566985
0.000566985
0.000566796
0.000566842
0.000566957
0.00056701
0.000566985
0.00108289
0.000566985
0.000567037
0.000566788
0.000566985
0.00056689
0.000568243
1.9914
1.61782
0.00163946
2.22795
0.000566985
0.00123028
0.635218
0.000566714
0.000569224
0.000566985
0.000566904
0.000876451
0.000566705
0.000566865
0.000566984
0.533857
0.000566837
0.490568
0.000566714
0.00056697
0.000566729
0.000566669
0.0845269
0.41911
0.000566985
0.435516
0.000567072
0.000566429
0.000567094
0.470623
0.000566821
0.000566581
0.000572173
0.0907971
2.28283
1.45969
0.00376626
0.000567067
0.00120978
0.438213
0.000567082
0.000566967
0.000585346
2.0656
2.09756
0.000566733
0.000566985
0.000567109
0.000568385
0.000567011
0.000566905
0.0691456
0.000566985
0.000566961
0.00056702
0.00156815
0.368612
0.000566993
0.454716
0.000566947
2.86525
0.00056693
0.000566935
0.000564536
0.000566985
2.05903
0.00111717
0.00113889
0.212921
0.000567115
0.552808
0.0901549
0.000567934
0.00056708
3.2331
0.000566778
0.00056708
0.583984
0.000566985
0.000566984
0.00056819
0.000566985
0.000566983
0.000566938
0.472295
0.000567068
0.000566981
0.00056691
1.79135
0.000566802
0.000566864
0.000566976
0.000566985
0.000566985
0.00056699
0.359578
0.000566983
0.000566939
0.000566755
0.000568817
0.000566994
0.000566958
0.475658
0.000566973
0.363352
0.000566981
0.639957
0.00056694
0.00162429
0.000566985
0.000567092
0.000566957
8.89933
6.32467
0.000566985
0.000566878
0.00398968
6.66089
0.000566985
0.00121103
0.000566985
8.11859
0.000566992
0.425335
4.28477
0.213931
0.000549355
0.421894
0.000566918
0.00056644
0.0010735
1.247
0.000567045
0.000566737
0.00056754
0.000566985
0.000566985
0.000566985
0.000566985
0.000566539
0.557667
0.000567791
0.000566985
0.549648
0.000566879
0.000566985
0.000566833
0.000566994
1.08197
0.000566829
0.000566606
0.000566972
0.061715
0.000566831
0.000751315
0.000566995
0.000566826
0.000566934
0.000566994
0.000567073
0.000566985
0.000567068
0.498
0.000566985
0.000566985
0.000566744
0.000566985
0.929209
0.429557
0.000566985
0.00056681
0.000566873
0.000566919
0.00311941
0.000566985
0.555609
0.000566985
0.000566985
0.447953
0.639814
0.510644
0.000573618
5.7251
0.000566742
0.470433
0.000566958
0.000565236
0.00165548
0.000566999
0.000566888
0.000566194
0.000566985
0.000566985
0.00056693
1.00508
0.000566979
0.000566384
0.000566985
0.000566985
0.484741
0.0010491
0.000566985
7.1391
0.000566908
0.00174606
0.000566985
0.515892
0.00153095
0.000566985
0.000220031
0.00109352
0.000566798
0.564546
0.483314
0.000566814
0.000567123
0.000566996
0.000566985
0.000566984
0.000566984
0.000566814
0.000566843
0.000566932
0.00056678
0.000566985
0.000566792
0.000566985
0.000566938
0.000566938
0.000566896
0.000567179
0.1093
0.000566985
0.00056678
0.000567909
2.21942
0.000566984
0.000566892
0.00184764
0.000566985
0.0013734
0.378192
0.000566917
0.000566985
0.000566835
0.000566848
0.000566975
0.000566993
0.000566965
0.00056674
4.81447
0.000566817
0.486397
0.000566985
0.00135057
2.25122
0.000566985
0.000566793
0.000566985
0.000526345
0.000566991
0.000566031
0.000566985
0.000566985
0.495351
0.00112949
0.941351
0.000566945
7.72033
1.96626
0.524762
0.00122374
1.04212
0.00132097
0.534872
0.000568587
0.000566829
0.000812449
0.000566994
0.00103453
3.28267
0.000566998
0.000566774
0.000567746
8.19482
0.000999847
0.000566806
0.000566787
0.00116165
0.000566911
0.000571527
0.000566149
0.00125356
0.000566985
0.000566987
0.000566985
0.000567071
0.000566791
0.538288
0.000566749
0.000568016
0.000566985
0.0012635
0.00114921
0.000566985
0.000567085
0.541332
0.50268
0.000566985
0.000566993
0.000566985
0.000566985
0.00113239
0.000566834
0.0371638
0.539989
0.000566768
0.000566994
0.688496
0.000575785
0.000566985
0.00138233
0.000568698
0.000827173
0.000585646
0.509066
0.00122251
0.409115
0.541847
0.000983296
0.000566559
0.00148693
3.47281
0.000567063
0.507435
0.00153143
0.700065
0.00099953
0.000566963
3.37071
0.0013875
0.000566739
0.488928
0.000566552
0.474351
0.000566764
0.000566992
0.001572
0.00182992
5.1129
2.44697
0.433185
1.73459
3.34504
2.68901
6.91206
0.52528
0.000566954
0.000566738
0.000567134
0.540956
0.344081
0.631678
0.779699
0.000566784
0.00056675
0.00101376
0.231247
0.000567
2.45957
0.781544
0.000571922
0.917425
0.000359259
2.747
0.000568627
0.000566985
0.000566832
0.514905
1.38304
0.000566985
0.00127618
0.000568093
0.125349
0.425978
0.000566801
0.000566926
0.000566726
0.000566985
0.0579929
1.00615
0.000566985
0.000566985
0.000566881
0.469867
0.112704
0.677974
0.000566909
0.000566815
0.000566985
2.12253
0.548932
0.41099
1.08676
0.419312
0.000566985
6.03935
0.421037
0.000566974
3.0909
0.000566986
0.001136
0.000566985
0.000759316
0.00114995
0.00109472
0.000566985
0.000566721
0.000566781
0.00056678
0.547571
0.00126758
0.000566991
0.000566941
1.93811
0.000566985
0.00277313
1.25363
0.650164
0.000565814
0.000566897
1.239
1.08482
10.4342
0.000566857
6.50804
0.779202
0.125837
0.000570762
0.232373
0.000566991
0.000566957
0.000566997
0.000566985
0.000566985
0.149378
0.00116771
0.000566833
0.000566985
0.000566746
0.000566985
0.000564952
0.000566832
0.000566859
0.0469255
0.669883
0.000566825
0.000566985
0.0932123
0.293256
0.180214
0.000566608
0.134659
0.000566958
0.000566985
0.000569525
1.2654
0.488919
0.000566985
0.00136735
0.000566985
0.471458
0.000566985
0.000566985
0.000566991
0.000567033
0.188856
0.000566985
0.000566985
1.45507
0.140086
0.000558996
0.000567046
0.00056695
0.430148
0.766195
0.000566985
0.493015
0.00117549
0.000566985
0.000566985
2.88071
5.60271
0.000566985
0.691279
2.51827
0.000566983
0.256893
0.000566746
0.000566985
0.00150062
0.00148371
0.000608406
0.000567155
1.89067
0.000566985
2.32561
0.000566975
0.000566985
1.45431
3.57473
0.688836
0.290697
0.000566985
0.00056716
0.00104766
0.00110024
2.15761
0.247886
4.6371
4.7195
0.000567518
0.000570166
6.27498
0.000566969
0.597789
0.000566897
0.000569907
0.606939
0.208743
0.000566351
0.000567911
0.000566976
0.000566893
0.000567013
0.000566985
0.000566874
0.000566985
0.000566985
0.561062
0.000566985
0.000569071
0.000566985
0.883006
0.000566898
0.000566998
0.000567051
0.416342
0.000566985
0.0005667
0.000561365
0.000566184
0.000566844
0.000566991
0.000586157
0.000567375
0.000566828
0.000566659
0.000566627
9.74709e-05
0.000565337
0.00141459
0.000789836
0.00126168
0.000566985
0.00155664
0.00193716
0.405735
0.000566674
0.000567001
0.00141417
0.12308
0.000566985
0.370527
0.00145648
0.000566985
0.000566985
0.000508793
0.000567445
0.000567976
0.568406
0.000566985
0.000566753
0.000566918
0.00135955
0.471597
0.00056671
0.00142657
0.000566984
0.00104748
1.18427
2.87119
0.00124784
0.000566958
0.639674
0.000566715
0.000566985
0.000566854
0.000566747
0.000571509
0.000563654
0.117366
0.000566985
0.000569858
0.576641
0.00151962
0.000566718
0.000567992
0.000566985
0.633589
0.00201603
0.520965
0.000566719
0.419705
0.377674
0.00121862
0.000566994
0.00102528
0.000566833
0.00126559
0.000566789
0.000566796
0.00119698
1.998
0.463749
0.000566784
9.83769
0.000566184
0.391797
0.000566899
0.000566971
0.000566739
0.000566985
0.000565816
0.000570396
0.000566811
0.000566828
0.000566985
0.000566826
0.000566816
0.000567047
0.474062
0.000572803
0.0878996
0.00056702
0.00056686
0.00134093
2.49488
0.000566961
0.00056698
0.00119324
0.000566886
0.000569027
0.00056768
0.00159237
0.639592
0.000566985
0.000566982
0.000569149
0.000566334
0.000566983
0.00056742
0.00056678
0.000566985
8.3875
0.000566821
21.9611
0.000566771
0.000566783
0.000567119
0.000566582
0.00119528
0.000566976
0.000566985
0.000566985
0.000566831
0.145733
0.000566985
0.000569638
0.513291
0.000565836
0.478451
0.000566861
13.1003
0.000566737
0.000566931
0.652446
4.85537
0.000564186
0.000566702
5.739
0.00146295
0.000566785
0.000566828
0.000566985
0.00056662
0.00056669
0.469385
0.514572
0.484802
0.000566985
0.523125
0.000566777
0.000566621
0.000567924
0.00105289
0.000792476
0.000566825
0.000566901
0.000566983
0.000566882
0.000568359
0.000566985
0.000566927
0.000565874
0.00056586
0.0104488
0.00144344
0.000566985
0.0948121
0.169772
0.000565319
0.000398201
0.0469415
0.000566985
0.000566852
0.000566912
0.363764
0.000566985
0.000566985
0.455052
0.00148865
0.000566826
0.000566985
0.000566985
0.000566797
0.000688524
0.114086
0.00056695
0.000565827
0.405545
0.000568258
0.000567681
0.70437
0.000566871
0.000566984
0.000566996
0.000566879
0.466606
0.00056699
0.000565085
0.000566981
0.000567288
0.00146714
0.000566985
0.40505
0.00114219
8.36868
0.000566985
0.000566985
0.000566922
0.000566965
0.000566931
0.000566985
0.0535003
1.06192
0.000989705
0.00908916
0.000566985
0.00105557
0.000566985
0.000566985
0.000568683
0.000566985
0.00056669
0.000566984
0.000566985
0.000566872
0.000566853
0.000566981
0.15869
0.000566928
0.672197
0.000566958
0.557983
0.542325
0.000566985
0.00108119
0.544791
2.19994
4.02497
0.0118114
0.000566966
0.000566996
0.000566985
0.000566996
0.0981216
0.000566994
0.135803
0.0868657
0.0354806
0.0920527
0.000802086
5.90052
0.000566985
2.49584
3.75564
0.000566849
1.80068
0.000237923
0.000566702
0.000566985
0.000566731
20.6068
0.000566788
0.502184
0.00116827
15.2162
0.351577
0.567724
0.00172331
0.000566985
0.000566941
0.000566654
0.000567064
0.000572518
0.000566976
0.000566786
0.000566902
0.112904
0.00147672
0.000566665
1.26995
0.000566765
0.000566795
0.00056731
0.000566918
1.60122
0.184365
0.00056668
0.000567031
0.000566807
0.494593
0.0619063
0.000566661
1.54509
0.518443
0.0772799
0.000566893
0.000566925
0.922666
0.563389
0.000566734
0.000567925
0.000567442
0.000567065
5.13279
0.000567309
0.36612
0.000567012
0.000566985
0.000566787
0.000566736
0.000640623
5.10424
0.000566753
0.000567043
33.2915
0.0834713
0.450876
0.000567016
2.87727
0.794544
0.000566863
0.000566991
0.000566884
0.656004
7.49176
0.000566948
0.00125989
1.47514
0.000566771
0.00075908
1.68641
0.000566696
0.000566775
0.00056914
0.000566729
10.3099
0.000567051
0.000566999
0.071389
23.5702
0.00083064
0.000883961
3.96373
0.000566937
4.79958
0.351178
0.000566993
0.622539
0.290441
3.21881
1.70013
2.41529
2.50704
0.000567016
1.74007
0.456954
0.000507845
0.00056691
0.000566718
0.000566878
0.000566863
0.0005669
0.000566978
0.00056667
1.28352
0.000566984
0.000566961
0.010358
0.000566985
0.000565807
2.59309
0.0811432
0.00128766
0.000679608
0.000566944
0.232849
11.2017
0.455906
0.000566989
0.000566932
0.000567459
0.242923
3.76809
0.00174927
0.000556707
0.229667
0.000567062
1.44484
0.00058784
0.000566716
0.171481
0.00136747
0.000566875
0.022326
0.000566838
0.000566805
0.138792
2.03272
3.23668
0.000566748
0.000566886
0.000566985
0.000566774
0.000569963
0.000660775
5.76522
0.000566985
0.000566985
4.30776
0.000566771
0.000566935
0.0603921
0.000566984
3.19462
3.40536
0.000566985
0.000566872
3.70282
1.28127
3.55006
1.55575
0.000567161
8.69543
0.587113
0.00195376
5.68945
0.0241054
0.593866
0.00056669
0.000566729
0.000531952
0.291833
0.00180954
0.000566936
0.159513
0.449875
7.20201
0.0631255
0.000566985
0.0407543
0.445723
1.50846
0.000566985
0.000566785
5.02951
0.000567048
0.000570056
0.157014
0.000572809
9.62295
2.95769
0.00249621
0.000825848
0.000566948
0.00056675
3.55394
0.247158
0.000565713
0.00056831
0.000566985
0.185744
0.000568512
0.147758
11.41
0.000568394
0.277331
1.94957
0.0417198
3.12476
3.83703
1.37452
0.000570058
0.542283
3.44163
1.4502
0.000980473
0.000566985
3.55124
0.000566673
0.000537287
0.00186005
0.154558
0.467517
2.05241
0.00149008
0.566686
3.02719
0.000566839
4.15477
0.0016881
0.570818
1.45483
0.000566583
0.527171
0.249188
2.48293
0.00187548
0.000566987
0.571735
0.000566985
0.0012035
0.954678
0.00109837
0.000567559
0.456597
0.235332
0.000566593
7.82471
0.000566985
0.000566767
0.000566788
0.000566784
0.577637
0.00105827
0.000566985
0.123812
0.365204
0.000566676
0.000567919
20.7996
0.000566772
0.000566985
0.000567502
3.41613
2.74131
0.000566905
6.49938
0.000566985
2.13986
0.207921
0.000574052
0.469092
1.07519
0.0327705
0.00314456
0.000567276
0.389454
7.59338
0.16926
2.96019
12.4301
0.00121666
2.89471
0.000566825
6.49809
0.000565924
0.450648
0.000568116
2.33804
0.000566726
0.0011903
0.000849773
0.837118
0.298398
0.00116825
0.000567091
4.55727
0.426448
0.000566806
0.000566985
1.90358
0.079501
0.000565775
0.610377
0.000566851
3.85656
1.6129
0.614136
0.000567172
0.000566948
2.18841
1.27959
0.00130036
0.000567485
0.00148056
0.000566773
0.000567009
0.25985
0.000566985
0.480662
0.43419
0.000567394
0.424246
0.000566918
1.45704
0.561329
0.000566985
0.00201839
0.562639
0.000566989
0.000566985
0.000567076
0.183132
0.000566757
0.000568745
0.000568371
0.00158492
0.000568742
0.000571971
0.000567257
0.000566973
0.000566939
0.000567207
0.000566751
0.000567074
0.000567009
0.000566944
0.000566873
2.20172
0.000568615
0.000566964
2.29418
0.000400497
0.000566719
0.000566899
0.000568484
0.000566985
0.00147158
1.86481
0.00056656
0.000567476
0.000569454
0.000594128
0.209482
0.153206
0.00205364
0.390179
4.46296
0.000566894
0.000566716
8.20279
4.97
0.00123879
0.608406
0.000567388
0.000566591
0.582022
0.00131272
3.10456
0.00144551
0.00160738
0.000978273
0.000566582
3.24872
0.000567094
0.000566999
0.00153786
3.8067
2.60868
0.35748
3.37897
0.00109785
0.00105043
0.00471178
0.000564774
1.62775
2.13407
0.00107537
0.642199
0.000566771
2.45475
0.000566787
0.000626157
0.000569669
1.032
0.000566985
4.26093
0.000567458
0.000567071
0.00159124
2.64195
0.203657
0.000740406
0.00056677
0.00056699
4.11297
0.00056706
0.000566985
0.244053
0.000566985
1.91119
0.00056402
0.000566192
0.000573765
0.000566745
0.000566698
0.000566985
1.92964
0.000566848
0.300984
0.192326
0.000567346
0.000567045
0.000566671
0.000566859
0.000567728
0.000566844
3.56801
0.000566802
0.000566624
0.000566985
0.00155586
0.371184
0.000566596
0.000570137
0.000566921
2.04354
0.000564468
0.000566719
0.000566806
0.000566695
0.000567086
0.556747
0.00056669
0.000566847
0.00056663
1.63393
0.000571222
0.000566785
0.000567068
0.550213
0.000569227
0.00057012
0.224328
0.000566777
0.000569546
0.00056864
2.32553
0.000566911
0.000566773
0.0005031
1.58865
3.69367
0.000566782
5.99033
5.5046
4.37786
0.000566776
5.48768
0.175581
0.00111877
0.000566995
6.97849
4.97098
0.000566492
0.000566997
0.000567254
0.000566712
7.18045
5.03238
0.000566834
0.000566985
0.000539437
0.000566911
0.000569084
0.535973
0.000566946
1.8652
7.11391
0.000566989
0.000584036
0.166431
0.000589943
0.000389609
0.000567519
0.000567096
0.446087
0.000566911
2.68297
0.000566552
0.000572332
0.000566926
0.587553
0.0015505
0.00056673
0.000565428
0.000566979
0.000566888
0.000449876
0.00056817
4.72944
0.000566935
0.114654
0.0437433
0.00204197
0.000566958
0.122946
0.618911
0.000566722
0.193302
0.0707478
0.00200532
0.000567242
0.00056682
0.52694
3.30131
0.145356
0.0433195
0.000566894
0.000566985
0.00215295
0.000567046
2.24276
0.00056682
0.000566825
0.0014978
0.0150095
0.000567046
0.000566985
0.747637
0.000566985
0.000566802
0.000566985
0.000566985
1.19258
0.551229
1.6541
0.000566985
0.000566817
0.000566716
4.88351
0.000566538
0.461391
1.86223
0.00152143
0.000566882
0.000566932
0.000566844
0.000566985
2.48712
1.88454
0.000566985
0.000566751
0.000566844
0.000566822
0.466003
0.000566985
0.523598
0.000566985
0.54922
0.00135222
2.26551
0.000566987
0.000566884
0.000566985
0.00057094
0.000569901
0.000571958
0.000566985
0.446791
0.000571127
1.14351
0.436299
1.31815
0.000566694
0.000566804
0.000566995
0.000566984
0.000575684
3.65238
0.000566985
0.000566836
0.000566798
0.579682
0.67825
2.21923
8.83673
4.70254
0.493701
0.00205557
18.8997
0.000558377
0.43778
0.000562442
0.000565893
0.00175613
0.137047
0.560246
0.00396372
0.000567211
0.493158
0.749182
0.000566973
0.000566976
0.000568944
0.000568563
0.00056659
0.000567032
0.00120026
0.261782
0.000566999
2.1119
1.04071
0.000566947
0.000566985
0.000566985
0.000567065
0.000566963
0.000566859
0.000567657
0.00160057
2.00084
0.000569295
1.27717
0.357144
0.000569715
1.69215
0.53036
0.000566454
0.00117247
0.603205
0.000606492
0.00127614
0.00125171
6.05545
0.650409
0.000568313
8.62956
0.000566982
0.00056677
0.0265454
0.000566893
0.000566998
0.000566827
0.000566987
1.20497
0.000567393
0.000567143
0.000566213
0.000566985
0.000566864
0.000567143
0.000566856
0.000568312
0.597116
0.000566972
0.74159
0.000566674
0.000601402
0.000570787
0.0005668
20.9601
0.00056791
0.000567452
0.388903
0.000357056
0.000566556
0.000566439
0.000177734
0.00859187
0.232846
0.000567418
0.000566985
11.7111
0.000566749
0.000566701
0.000566692
0.120098
0.000566805
0.000566818
0.000566735
0.862975
0.00106704
0.000566736
0.00118725
0.000566807
0.607465
0.00158797
0.000566859
0.152506
0.000566991
0.000566752
0.000566786
0.000566852
0.000566955
0.000566663
0.00124501
0.000566779
0.000566705
0.000583071
0.604089
4.25142
0.00056785
0.000571127
0.00171976
0.000573867
0.103676
0.431324
0.0156838
0.000582725
0.000568747
0.00122304
0.000566796
0.000588534
0.000566735
0.716144
0.375182
0.00138344
0.480436
0.698929
0.000566789
0.000566995
0.767216
0.00056696
0.000566866
0.0414141
0.00131479
0.000566949
0.000566736
0.000383514
0.000566919
0.00056694
0.000566743
0.000566985
0.000566825
0.610249
0.000566766
0.00056691
0.000566767
0.000566835
0.000566985
0.137429
0.291727
0.00165063
0.000567006
0.00111471
0.00280454
0.000567034
0.000566749
0.000566824
2.47319
0.476877
13.2348
0.000566754
2.89926
0.000566731
0.000566971
0.210018
0.399684
0.000566997
0.000568038
0.000566985
0.000566887
0.000567105
0.000566684
0.000566816
0.000566892
0.906147
0.0398185
0.677753
0.00056684
0.00056687
4.24712
0.000566988
3.07594
0.00056672
0.0011033
0.000567092
0.000566985
0.000566777
3.22937
0.0991829
0.000558994
0.000558239
0.000566977
0.000566985
0.000186836
0.000566869
0.795691
0.00128196
3.19061
0.421092
0.000566985
3.74095
0.000566985
0.000566825
0.000566985
0.000566985
0.000567049
0.000567084
0.569006
0.000566726
0.00261095
0.000566985
0.000576042
0.000567069
10.3504
0.000567029
0.000566904
1.14841
0.559216
0.000566619
0.000566706
0.000566764
0.000566792
0.03995
0.000566925
0.557578
0.000567238
0.000566839
0.011401
3.22169
0.000567031
0.000556826
0.000566915
0.000598398
0.000566985
0.000566985
7.67485
0.000567063
0.000566985
0.00149148
0.000566985
0.000566888
0.000566782
0.000566992
0.000568063
0.00275956
0.000566907
0.000570637
4.696
2.83732
1.60185
0.000566989
0.000566885
21.799
0.000566834
0.000576951
1.70651
0.000566685
0.257692
0.247359
1.41694
0.522736
0.000566845
0.000566792
0.000566921
0.000566985
0.000566861
0.464137
0.000567011
0.447583
0.000566954
0.692989
0.0109926
0.000566916
1.71824
0.000566794
0.000566902
0.000706595
19.9275
0.655126
0.000566985
0.47771
0.000567116
0.000566985
0.000566852
0.000567528
0.000566803
0.000566985
3.35932
0.47866
0.000575912
0.000566927
0.000570674
0.000566985
7.65257
0.000566985
3.05091
0.000566815
0.000566985
0.000562979
0.00136121
0.00056683
6.11291
4.25947
0.000566942
0.000567314
0.00056676
1.32683
0.000567101
0.000566796
0.000567094
0.38543
0.000569023
0.000566985
0.000568063
0.229121
2.69959
0.275377
3.48821
1.49506
6.80977
0.000566939
0.000566963
0.00056821
5.02434
0.000566916
0.000566962
2.80202
0.000914397
0.168505
0.000566956
0.000566812
0.507876
0.466972
4.02013
0.000566985
0.000566847
1.06301
30.1955
0.00749128
3.58094
0.0883152
0.000566862
0.000567355
4.9357
0.000566782
0.000566802
0.00137048
3.63968
0.00107027
1.56347
0.519432
3.29717
0.000567012
0.243714
3.06394
0.00056713
0.00056712
4.75217
0.000568145
0.000567003
0.000566821
0.000566914
0.000573028
0.00420482
0.000568414
2.53044
0.000567028
0.000566985
0.000566933
0.000563921
0.000967623
0.0511278
0.000566911
0.000566292
0.00056687
0.971277
3.48319
0.000566667
0.000567019
0.000530466
0.000566805
0.00061509
0.000566842
0.000566801
3.27504
0.000570186
2.04479
0.000566985
2.66715
0.000566705
1.69607
1.72754
3.08233
0.000566859
0.000574956
2.61403
0.000566669
0.000566778
0.000566704
0.000566697
8.6491e-05
0.0207097
2.24367
2.69343
2.45852
6.3665
0.00131023
3.94219
0.00135338
0.00143357
0.000566905
0.000566744
0.001765
0.000566849
0.00116221
0.000566897
0.000568711
0.000566925
0.00145045
0.00056671
0.000574776
0.00127785
0.000566791
0.000566982
0.000566909
0.000566871
0.000567178
0.000566984
0.361834
0.000566758
0.000566966
2.78652
0.000566824
4.52299
4.73958
0.488673
5.11623
0.480008
5.21903
0.531265
0.000566985
0.000566985
0.000566797
0.423806
0.000566985
1.05483
0.00056703
0.000567254
0.000566804
0.000566744
0.000566581
0.000566931
0.000566613
0.000554251
0.00056681
0.561042
0.000566645
0.000566722
7.88326
0.000570471
0.000567064
1.0761
0.405359
0.000566856
0.000566906
0.000566931
0.700762
0.849664
2.07136
7.64456
2.55409
0.000566891
0.000566574
0.000566801
0.000567332
0.00056686
0.00056688
0.00128675
0.000566881
0.00056673
0.000566814
0.000568492
0.000566894
0.000566934
0.000566739
0.000567615
1.46553
1.31624
3.34861
0.0257824
0.169034
0.000566683
0.000566896
3.19267
0.000534811
0.000566806
3.51734
0.00124487
0.000566951
0.000566736
0.00233888
0.616724
0.0658861
0.000566827
0.000566985
0.00142273
2.37845
0.000566985
0.000566937
0.000566985
0.0230313
9.0284
0.000569267
0.00142176
0.000566775
0.000566992
0.000566731
0.000566834
0.000566796
0.000566765
0.000566906
0.000567031
0.000566776
0.000567004
0.000567093
0.00056716
0.000567121
0.130331
0.000566802
0.023378
2.30362
3.35009
2.93699
0.486016
0.52949
0.81937
0.998956
0.000566985
0.000567366
0.000570825
0.0651504
0.242461
0.415166
0.0358753
2.2448
2.56222
3.15531
4.28745
0.00120438
0.000422381
0.000569594
2.35665
0.111369
4.20769
0.000567086
0.000566846
0.000566952
0.000567042
0.4431
0.347463
0.00860097
5.98648
0.000569192
0.000567092
0.000567028
0.000566973
2.91232
0.000892183
0.000567255
0.000567083
0.703824
0.000243783
0.00056683
0.000566855
0.000566957
0.000566823
0.000566979
0.000566904
0.489638
0.000565329
0.000566974
0.000566829
5.1309
0.00056895
0.000565201
0.000577827
0.000566754
1.29142
0.000566851
0.000570824
0.000567048
0.0391442
0.248233
0.597639
0.000566908
1.83471
0.000567033
0.000566928
3.4671
0.836149
0.930476
1.48088
0.634206
0.000566985
5.59528
0.000566788
0.000566985
0.000566985
0.000568055
0.000566985
0.104813
0.000566814
0.242016
2.53275
0.000566709
0.000566825
0.00160452
0.000569358
0.57028
0.000566984
0.00421095
0.000566984
0.000568106
3.82096
0.000566977
0.000566581
4.53982
0.000566893
0.000567042
0.000566899
7.56882
1.66867
0.000566953
3.49832
0.000566881
0.000566841
0.000567041
0.000566996
0.000566804
0.000567123
0.000566769
0.000566985
0.000566924
0.000568384
0.0137496
0.000566993
0.000215168
0.000567341
0.00282415
0.00142085
0.111375
4.18999
0.000566985
0.000566985
0.000566779
2.59808
12.0173
0.000566985
0.000568234
9.90865
5.98916
0.130479
1.66139
2.0787
0.000567113
0.414648
0.435306
0.000568977
0.000566791
0.000566853
0.000570337
0.577213
0.000551229
8.32966
0.000566984
0.0005667
0.422499
28.4755
0.000568207
7.24733
7.69689
0.000567232
0.000567495
0.00147292
0.000567075
3.11018
0.00138248
0.00152451
0.00158437
0.000566721
0.0005668
0.626339
0.00403319
0.000568466
0.000566732
0.000567061
0.000566799
0.000566945
0.000566943
0.457349
0.351263
0.186155
0.000566979
0.000566764
0.000566985
0.000566883
0.000568644
0.000566758
0.000570438
0.000572802
0.380646
0.000566733
0.362778
0.457704
0.000566828
0.000567267
0.000566769
1.72507
0.000566948
0.000571048
1.4479
0.561604
0.000565085
0.000566984
0.000566713
0.000566733
0.000569019
2.68005
0.000571838
0.000566839
0.139094
3.66452
0.000566315
1.92154
0.000561835
6.76515e-05
0.000634917
0.000567042
0.892977
0.000567004
0.000566761
0.000566976
0.000568399
0.000569054
0.000568227
0.00186825
0.000569415
0.000867469
0.000567991
0.016666
0.000570684
0.000567044
0.00056799
0.00056905
0.00168356
0.407212
2.04127
0.000570239
0.000616431
0.001275
0.000566762
0.00160568
0.608396
5.43873
0.00149716
0.187273
0.000566811
0.00186837
2.42823
0.000566816
0.836564
0.845372
1.65543
0.00143903
0.00126771
0.305252
0.000567045
0.000569889
0.0050816
10.2954
0.000582909
0.000566944
0.0451976
0.00056919
0.000566816
0.00151618
0.483866
6.65981
0.00056692
0.305427
0.000566865
0.30503
0.000565609
0.000566888
0.725306
0.00056709
0.00165769
5.88578
0.0106868
0.00155836
3.12203
0.000570137
0.0610976
0.000567022
0.553982
0.515403
0.00106537
0.000570035
0.000627521
1.27325
3.20466
2.50754
0.000569991
0.000568985
3.2982
0.000566523
0.00056688
3.90651
3.06617
0.00145635
0.000566868
0.000566741
0.000566929
0.547614
0.000566857
0.0005669
0.000566962
0.0890784
0.000568352
0.000566985
0.000266607
0.00178981
0.000566884
0.000566934
4.3768
3.28093
0.000566753
0.000566999
0.61618
0.121579
0.000567192
0.253822
0.00191403
0.00163974
0.31401
0.000566982
0.0998374
0.00121592
0.000566856
0.000568353
1.85532
0.0240584
1.03931
0.00056667
9.54617
0.242604
0.00896781
0.347773
0.00781945
2.01262
1.75513
4.55292
0.347501
3.2315
0.489004
0.000566685
0.00057248
0.5095
0.000566778
0.000566561
0.46651
0.168007
0.000566928
0.000567659
0.00056665
0.000566648
0.00134874
0.462238
0.000566701
0.190463
0.000566739
0.000567007
0.343542
0.57997
1.89742
0.000569467
0.707442
11.989
1.84457
6.46214
0.000567001
0.000566726
0.000568217
0.000566805
0.00125547
0.00151895
0.00056678
0.000566768
3.46352
0.521661
0.00195512
7.72212
0.463063
7.10651
0.00128336
1.01328
0.000570931
2.70492
0.00130553
0.468363
0.000570598
0.000566985
3.5259
0.000566985
0.000566989
0.000566478
0.000566985
0.000566985
0.00107782
0.457477
0.00956468
0.000566985
9.30985
6.46737
0.00106709
0.00056696
0.000566874
0.000566951
0.000566967
0.07095
0.000566834
0.636797
0.635483
0.000566975
0.000566985
5.66883
12.859
0.894119
0.573632
0.000571036
0.00165165
0.53399
0.000566985
0.000566985
0.000565946
9.59794
0.000566956
0.000566981
0.000566983
0.000566904
0.0011691
0.000568568
0.00056939
8.56217
0.000810574
0.00209218
0.000563826
0.487362
0.546166
2.79174
7.64167e-05
0.000566843
0.882765
0.000566843
0.000566994
0.00056744
0.636023
0.000566811
0.00121908
0.56703
0.000566985
0.000566976
0.439009
0.000566996
0.000566945
1.45529
0.574934
0.000570775
0.58142
0.000566819
0.000566985
0.000566984
0.000566985
0.000566887
0.851179
0.000566674
0.797446
0.00125298
0.000566985
0.000566985
0.301619
0.000569105
0.417471
0.00129233
0.000566985
0.000566976
0.000566994
0.000566759
0.00104986
0.482516
0.000566968
0.00119616
0.494655
0.000566945
0.000566985
0.00110662
0.000567335
0.00056699
0.00112066
0.00108606
0.000566985
0.000566993
2.58043
0.442876
0.00117827
0.452345
0.550395
0.000577455
0.584851
0.000566885
0.000566977
0.00056666
0.000566776
0.000566985
0.000571033
0.7188
0.000566995
0.00117204
2.72145
0.00120223
0.000567755
0.000566874
0.422473
0.0733045
0.00119125
0.599486
0.000566977
0.100804
0.000566788
0.000566872
0.000566985
0.00056752
0.409168
0.000566995
0.550193
0.000567594
0.000566985
0.000566985
0.00056682
0.00118088
0.00104637
0.453656
0.724474
0.000566985
0.000566985
0.64042
1.45334
0.000566985
0.000566871
0.94282
0.78071
0.000256935
0.570907
0.000414674
0.000566999
0.000566985
0.000566985
0.00056695
0.00107024
0.605533
0.652556
0.000566987
0.000566856
0.00113275
0.000570617
0.451501
0.000566871
0.000566936
0.000567001
0.0011978
0.00109573
0.00126308
0.000566982
0.00106318
0.532384
0.00056675
0.000566929
0.00055261
0.527548
0.000568419
0.000566983
0.000566876
0.000566714
0.000566985
0.523542
0.00132635
0.000566993
0.000566985
0.672007
0.000566847
0.000566985
0.372434
0.37651
0.00124271
0.000566982
0.000566985
0.00122718
0.000566985
0.000566985
0.000567148
0.000567447
0.000566985
0.000566985
0.000566985
0.000566985
2.66962
0.000566985
0.000566985
0.000664561
3.9938
0.599873
8.08579
2.42173
0.000566795
0.374096
3.04472
2.16506
0.00111602
3.50125
0.000567932
0.481891
2.70414
0.0937872
3.40028
0.0013534
3.06325