/*--------------------------------*- C++ -*----------------------------------*\
| =========                 |                                                 |
| \\      /  F ield         | OpenFOAM: The Open Source CFD Toolbox           |
|  \\    /   O peration     | Version:  2312                                  |
|   \\  /    A nd           | Website:  www.openfoam.com                      |
|    \\/     M anipulation  |                                                 |
\*---------------------------------------------------------------------------*/
FoamFile
{
    version     2.0;
    format      ascii;
    arch        "LSB;label=32;scalar=64";
    class       volScalarField;
    location    "0.4";
    object      T;
}
// * * * * * * * * * * * * * * * * * * * * * * * * * * * * * * * * * * * * * //

dimensions      [0 0 0 1 0 0 0];

internalField   nonuniform List<scalar> 
32842
(
299.998
300.057
300
300
300
299.998
549.301
250
300
299.979
250
250
299.974
300
300
299.903
299.872
299.995
299.916
300
300
299.855
300
300
299.875
300
299.999
300
300.615
299.818
300.538
300
250
299.844
250
250
300.011
299.892
300.048
299.963
300
300
300
300
299.864
299.771
299.349
299.905
300
300.805
250
300
299.837
301.153
300
299.771
300
300.765
300
300
250
299.885
300
300
300.037
298.851
300
299.902
300
299.929
300
300.151
300
300
300
299.85
300.916
300
299.924
299.806
300
300
300
300
300
300
300
299.906
301.108
299.979
299.894
300
299.298
300
300
299.82
299.894
300
300
300
300
299.956
300.189
300.369
299.884
299.823
295.564
300.245
299.848
299.847
299.986
299.959
299.036
299.984
300.218
300
300
300.2
300.248
299.911
299.931
299.979
297.96
300
299.994
300
299.72
299.947
300.327
300
300
299.89
299.829
299.854
299.94
299.973
299.768
300
299.846
299.829
299.916
299.852
300
299.804
299.939
299.858
250
299.87
300
299.907
299.931
300.038
299.909
300.842
299.977
300
300
299.891
299.916
299.985
300.017
300
300
300
299.919
299.886
300
299.948
299.864
300.685
300.138
300.15
299.431
300
300
300.213
299.841
300.038
300
299.956
299.746
299.837
299.927
300
300
299.914
299.851
299.847
299.98
299.847
299.811
299.762
300
300
300
300.05
299.674
300.064
300
299.908
299.769
300.041
299.869
298.551
300.561
299.914
300.044
300
300
300.049
299.987
299.994
300.319
300.287
299.854
300
300.068
300.096
300.022
299.824
300.114
300
299.987
300.023
299.977
299.963
300
300
299.982
299.462
299.97
299.972
300.002
300
299.287
299.994
299.994
299.904
300.073
300
298.545
299.952
300.048
300.554
299.875
299.84
300
299.999
299.999
299.875
300
299.999
299.945
299.853
299.97
299.998
299.955
300.249
299.893
299.927
299.995
300
300
299.999
299.998
299.999
299.975
299.861
299.837
300
299.986
299.999
299.994
299.876
299.998
300.039
299.977
300.019
300
300.049
299.985
300.321
300.149
300
299.932
299.921
300.542
300
299.998
300
250
300
300
300.425
298.156
300.031
300
299.963
299.834
300
250
299.98
299.858
299.905
300
300
300
300
299.735
299.964
299.907
300
300
299.942
300
299.911
300.003
299.437
299.914
299.781
299.992
300.532
299.912
300
300
299.909
299.975
300
300.045
300
300.039
300
300
300
299.859
300
300
300
300
299.898
299.931
299.951
300.025
300
300
300
300
300
300
300
299.864
300.61
299.866
300
299.985
299.8
299.781
300.007
299.946
300.043
300
300
299.975
297.56
299.996
300
300
300
300.019
300
300
250
299.956
299.855
300
299.845
300.071
300
299.991
300
299.89
299.971
300.085
299.9
300.077
300
300
299.999
300
299.905
299.916
299.962
299.881
300
299.889
300
299.971
299.969
299.948
299.988
300.338
300
299.878
299.964
300.39
299.902
299.938
299.903
300
299.849
299.772
299.96
300
299.917
299.919
299.989
300.003
299.987
299.866
250
299.889
300.017
300
299.965
250
300
299.892
300
299.983
300
299.884
300
300
299.972
300
300
299.975
260.249
300.522
299.999
299.971
298.296
300.071
300
299.946
299.908
300
300
300
300.135
300
299.868
299.868
300.243
300
299.884
299.879
300
299.909
300.055
300
300
300
300
300
299.974
299.892
300
299.864
299.874
300
300
300
300
300.049
300
300
300
300
300
300
300
299.915
300.103
300
299.879
300
300
299.871
300
299.739
299.945
300
299.997
299.598
300
299.971
300
299.969
299.746
299.907
300.488
299.998
300
299.861
300
300
299.988
300.437
300.051
299.86
300
299.743
300.051
299.874
300
300.038
300.033
300.455
250
300.924
300.374
300.373
300.27
300.389
299.908
299.969
299.855
300.077
300
300.496
300
300.08
299.878
299.869
300
298.578
300
250
299.224
300.012
300.538
300
300.248
299.867
300
299.901
299.979
300.524
300
300
299.87
298.489
299.901
299.893
299.972
299.853
300
298.278
298.375
300
300
299.846
299.895
298.372
300
299.953
299.905
300
300.659
299.969
299.616
298.978
300
300
300.592
300.031
299.994
299.474
300
300
300
299.9
299.985
300
300
299.849
299.882
299.882
300
299.905
300
299.97
300.588
300
299.916
300.384
299.905
300
299.951
300.509
300.547
250
299.918
294.775
300
300.699
299.774
300.107
300
299.985
300
300
300
299.994
300
299.915
300
299.867
300
300.013
299.911
299.911
299.474
300
299.908
300
298.518
299.776
300.072
299.77
300.212
299.985
300
299.899
298.897
300
300
299.89
300
299.261
300
300
300
299.982
299.845
300
300
299.015
299.524
299.872
299.871
299.981
300
299.992
300
300
299.919
300
300
300.607
300.192
300
299.917
300.715
299.934
299.75
299.867
300
299.892
299.919
299.933
299.977
300.834
300
300.677
299.995
300
301.01
300.371
300.202
299.937
300
299.895
300
300
300.676
301.055
300.443
300.347
300.143
300.08
300.281
299.992
300.784
299.942
300.002
299.86
301.116
300
299.729
299.995
299.943
299.898
300
299.928
300
300
299.851
300
299.841
300
299.96
299.952
300.008
300.04
299.702
300
299.832
299.737
299.867
299.915
300
300.045
300.026
299.913
299.804
299.791
299.786
300
299.999
300
300
300
299.621
299.945
300
299.811
300.013
300.025
301.39
300
299.909
299.962
300
300
300.158
299.765
299.675
300.088
300
299.871
299.963
299.877
299.998
299.842
299.97
300
300
300.608
300.613
299.974
299.993
300
299.846
300
299.921
299.861
299.997
299.959
301.257
300
299.952
300
300.037
299.843
299.957
300
299.986
299.922
299.995
299.841
299.914
299.931
299.93
300
299.883
299.914
299.986
299.88
299.89
299.994
292.694
299.765
299.885
299.367
300
299.89
299.942
299.993
299.857
300
299.902
299.907
299.896
299.911
300
299.904
299.9
300.04
299.972
299.895
300.011
300.022
299.933
299.928
300.158
299.99
299.996
300
299.945
299.988
299.894
299.857
299.917
300
299.998
299.941
300
299.999
299.981
299.881
300
250
299.907
300.013
299.879
299.884
299.99
299.979
299.931
299.981
300
300
299.909
298.987
300
300
300
300
299.919
299.931
299.058
299.842
299.964
300
299.178
300.1
299.841
299.171
299.983
299.878
299.905
300
299.79
299.83
299.894
298.05
300.008
300
300.084
299.876
300.117
300.063
299.963
300
299.908
299.956
299.999
299.934
300.188
300
299.962
299.996
299.922
300.005
300.01
300
299.968
300.037
299.849
299.967
300.132
300
299.925
299.951
299.888
300
300
299.864
300.008
299.909
300
300
299.896
299.932
299.897
299.981
299.894
300
299.861
299.931
292.712
299.934
300
300
299.934
299.699
299.909
300.069
299.998
299.932
299.955
300
300
300
298.846
300
300
299.959
299.993
299.968
300
299.864
299.206
300
299.948
300
300
300
300
299.928
300
299.834
299.999
300
299.932
299.92
299.998
301.425
299.959
300
299.979
300
300
300
300
300
298.967
298.705
300.678
299.989
300
300
300
300.644
300
300.208
299.958
300.652
300.507
300
300.609
300
300.239
250
299.924
300.536
300.053
299.834
300
299.854
297.788
299.873
299.997
299.997
250
300
300
299.93
300
299.966
299.809
300.033
299.781
299.995
299.888
299.954
300.139
299.855
299.814
300.307
299.87
299.885
299.954
299.952
300.341
301.476
299.817
300.023
299.893
299.993
299.876
299.806
299.596
299.814
299.591
299.911
299.921
301.054
299.902
299.847
299.989
299.906
299.958
300.148
300.039
299.853
299.938
300
299.891
299.849
299.995
300.275
299.862
300.035
250
299.936
299.757
300.007
300.292
301.322
299.93
300
299.942
299.9
300.343
299.979
299.699
300.173
299.874
300.046
300.157
299.834
299.882
299.912
299.853
299.564
300.005
299.943
300.056
296.533
299.907
299.903
300.565
299.976
300.336
300.04
300.001
300.16
299.971
300.335
300.218
299.47
300.208
300.014
250
299.981
299.862
299.959
299.843
299.94
299.924
299.937
299.895
299.81
279.666
299.999
299.987
300.003
300
300
299.833
299.957
299.934
300.099
299.973
301.479
299.294
299.913
299.909
299.971
299.993
299.696
300.165
299.887
299.922
299.534
300.031
300.2
300.022
299.848
299.944
299.944
299.924
299.955
299.913
299.893
298.027
299.44
300.357
299.85
299.925
300
299.874
299.879
300.196
299.848
300
300
300.416
299.881
299.963
299.67
300
300.293
300.317
300
299.927
300.356
299.568
299.49
300.183
300.092
299.218
300.19
299.762
299.988
300.137
299.978
299.822
299.849
300.049
298.927
299.91
299.961
298.64
300.003
300.125
300.64
300
299.748
297.912
300.278
300
299.885
299.562
300.041
299.954
299.848
300.195
299.231
300.312
299.963
299.915
299.972
299.855
300.272
300.08
299.897
300.039
300
300.287
299.886
299.164
250
299.993
300.405
299.562
301.33
300.263
300.22
250
299.976
300
300.389
300.174
300
300
300.284
299.821
300.056
299.85
300.109
300
300.232
300.075
300.138
250
299.91
300.358
300.007
299.887
295.119
299.758
300.138
301.469
300.29
300.024
300
300
300
299.9
250
300
300.002
299.921
301.227
299.768
300.08
300
299.877
299.888
299.874
300.85
300
300
300.651
299.834
299.808
299.954
297.716
299.873
300
300.054
300.406
300.238
299.945
300.491
300
300.223
300.992
299.895
300
300.385
300.063
299.845
300.035
300.452
300.061
299.965
299.961
300.005
299.999
300.347
299.906
300.317
300
300
299.874
300.105
299.848
300
299.82
300.492
299.676
300
300.057
300.246
299.673
299.897
300
298.249
301.665
299.972
299.97
299.894
299.795
300.154
299.96
300.023
299.973
300.206
300.895
299.897
299.944
300.035
299.875
299.91
300.132
300
300.032
300.055
299.997
300.133
299.963
299.464
300.595
300
299.946
300.206
300
300
300.039
298.18
299.871
299.973
300.086
299.973
299.927
299.886
299.868
299.993
299.963
300.127
299.866
300.044
299.974
299.977
299.928
300.227
299.98
299.992
299.484
299.828
299.844
299.942
300.034
300
300.001
299.715
299.746
299.991
300.131
300.106
300.546
300.231
300.068
299.857
300.336
299.948
299.84
298.832
300.241
299.892
299.909
300.006
299.763
300.562
299.846
300.18
299.978
300.037
300
299.76
300.215
300.063
300
299.743
300.276
299.023
299.922
300.275
300
300
299.888
300.082
300.314
300.251
300
299.424
299.873
300.596
299.88
300.192
299.962
300.027
300
300.425
299.947
300.046
300.033
300.123
301.681
300.135
299.877
299.995
300.458
300.037
300
300.648
300
300.156
299.976
299.887
299.861
299.845
299.828
300
299.583
299.922
299.658
300.166
299.955
300.033
299.807
299.92
299.896
299.912
299.357
299.898
299.785
300
300.102
299.906
299.773
300.046
299.965
300.324
299.861
299.822
299.884
299.832
300.052
299.902
299.826
299.916
299.793
300.384
299.751
299.819
300.039
300
300.076
299.854
299.94
299.882
299.965
299.755
300.115
299.958
299.875
299.995
299.882
300.21
299.92
300.552
300.573
300.539
299.883
300.581
299.937
299.902
299.985
300.54
300.599
299.715
299.999
300.039
299.842
300.642
300.502
299.912
300
299.832
299.932
300.053
300.92
299.973
300.372
300.462
300
299.727
300.051
299.829
299.74
299.91
299.956
299.665
299.957
300.536
299.746
299.786
299.969
300.063
299.785
299.852
299.876
299.997
299.941
299.794
300.053
300.513
299.971
300.122
300.072
299.823
299.984
301.047
300
299.845
300.073
300.01
300.117
299.988
299.902
299.938
300.351
300.673
299.936
299.941
300
299.822
300.027
300.239
299.903
299.901
299.897
300.011
300.025
300
300.267
300
299.894
300
300
300.478
300.024
300.279
300
299.889
299.841
300.435
300.051
300.173
300.7
299.982
299.934
299.961
299.911
300
300.582
300.648
300
299.868
299.913
299.905
299.902
300
300.055
300
299.979
300.112
300.142
300
299.945
300
299.989
300.085
300.143
300
300
299.942
299.988
300.088
299.99
299.833
299.893
300
300
299.892
300.524
300
299.91
299.889
299.907
300.051
300.454
298.917
300.466
300.102
299.901
250
299.915
300
299.953
299.96
300.084
300.002
300.285
300.071
299.994
299.96
301.03
299.993
299.995
299.889
300.066
299.764
300.021
299.681
301.131
299.99
300.016
301.018
299.979
300
300
300.039
299.988
299.93
299.811
299.637
299.535
299.854
299.648
299.411
299.914
299.601
300
300
300
299.719
299.818
299.907
300
300.214
299.76
300.243
300.039
299.998
299.871
300.177
299.918
299.985
299.902
300
300.005
299.898
300.06
300
300
299.907
300.03
299.876
300.152
300
299.993
299.999
299.818
299.951
299.971
299.896
300.406
300.183
300.071
299.997
299.827
299.744
299.936
299.746
299.909
300.283
299.815
300
299.293
299.842
299.834
299.819
300.974
299.89
299.903
299.857
300.055
299.843
299.848
300
299.891
300.182
299.866
299.923
299.786
300
299.868
299.862
299.921
299.984
299.812
300
299.885
299.825
300.053
299.939
300.475
299.938
299.978
299.917
299.956
300.349
299.964
300.148
299.885
300.028
300
299.892
299.85
299.809
299.571
300.078
299.889
299.895
300.068
299.877
300
299.88
299.986
299.926
299.69
299.855
299.974
299.861
300.201
299.956
299.962
299.856
300
299.901
300
299.874
299.953
299.87
299.914
300
301.583
300.813
299.916
300.001
300
299.857
300.02
299.863
299.908
299.696
300
297.764
299.863
299.942
299.856
299.983
300.196
299.929
299.995
300.133
300
299.94
300.062
299.817
299.904
299.963
300.109
300.238
299.923
299.916
299.936
299.909
300.005
299.939
299.847
300
300.054
300
299.879
300.136
300.292
300.145
300.126
299.996
300
300.146
299.925
300
299.766
299.407
299.933
300
299.374
300
299.902
300
300
300.029
300.057
300
299.851
299.897
300
300.037
299.984
250
300.016
299.948
299.312
300
299.792
299.842
299.873
299.888
299.878
299.962
300.104
300.004
299.915
299.888
300.342
299.955
299.982
299.953
299.884
300
300
299.817
300.002
300
299.754
300
299.937
299.871
300
300.199
299.852
299.956
300.158
300.063
300.365
250
300
299.939
300.096
299.912
299.985
299.897
299.813
300.037
300.075
299.973
299.877
299.913
299.89
299.961
300
299.921
299.995
300.015
299.851
299.977
299.408
299.888
299.966
299.881
299.879
299.928
299.984
297.102
300
300
298.352
300.041
300
299.92
299.962
299.861
300
299.422
299.933
299.882
299.959
299.819
300
299.343
300
299.422
299.901
300
300.178
299.816
299.907
300.485
300.185
299.912
300.045
299.873
299.495
299.937
299.895
300.056
299.413
299.881
300
299.98
300.017
299.364
299.435
300.379
299.848
299.075
299.97
299.897
300.191
300.637
299.942
299.981
299.449
300.033
300.668
299.979
299.887
300
300
299.306
300
299.915
299.451
295.313
300.162
299.457
299.344
299.932
299.903
300.61
299.879
299.896
300
299.363
299.959
299.38
299.85
299.364
300.017
300.146
299.405
300.073
300.068
299.327
300.158
300.012
299.903
299.942
299.995
300.016
300.008
250
300.016
300
299.966
299.83
300
299.561
299.949
299.78
299.935
299.711
299.358
299.817
299.911
300.005
299.895
299.861
299.921
299.896
299.232
299.897
299.759
300
299.496
299.837
299.538
299.583
300.267
299.927
299.852
299.704
299.816
299.881
299.825
299.836
300.143
299.937
299.521
300.374
299.474
299.094
299.866
300.42
299.861
299.93
299.949
299.858
299.969
299.915
299.917
299.95
300.154
299.867
299.997
299.84
300.188
299.998
299.883
299.999
299.922
299.929
300.034
300
299.86
299.872
299.982
299.423
299.904
299.322
299.302
299.994
299.34
299.921
299.292
300
300
300
299.879
299.825
300
300.464
300.02
300.043
299.895
299.862
299.759
299.971
299.783
299.942
299.903
299.831
299.799
299.851
299.342
300.181
300.031
299.621
299.805
299.927
299.952
299.967
300
299.425
299.423
299.919
299.406
299.938
299.763
299.892
300.087
299.923
299.937
300.017
299.939
299.85
299.899
300.073
299.944
299.969
299.841
299.71
300.197
299.72
299.461
299.806
300.766
299.828
299.943
299.399
299.929
299.895
299.41
299.909
299.983
299.854
299.893
298.265
299.956
299.897
300
299.701
300.234
300
299.962
300
300.046
299.422
299.908
299.996
299.884
300
299.843
299.91
299.888
299.866
299.944
300.024
299.881
300.01
300.057
300.092
300.074
299.695
299.887
300.109
299.857
300.109
300.247
299.868
299.807
300.082
300.118
300
300.038
299.871
300.134
300.062
299.922
300.168
300.25
299.839
300.199
299.438
299.95
299.884
300.167
300.492
300.166
300.205
300.053
299.927
299.866
299.981
299.817
299.866
299.908
299.949
300.099
300.015
300.022
299.99
299.918
299.878
300.05
300.049
299.866
299.836
299.912
299.914
299.922
299.905
299.997
299.947
299.899
299.907
299.994
299.853
299.907
300.165
299.872
299.967
299.859
299.643
299.92
299.784
300.027
299.729
299.504
300.112
299.939
300.093
300.027
299.959
299.773
299.932
299.68
298.638
300
300
299.864
299.878
300
300
300.161
300
299.487
299.898
300.616
299.785
299.836
299.898
299.774
299.864
299.874
299.999
300.163
299.999
300.142
299.686
299.984
299.76
299.438
299.941
300.029
299.946
299.222
299.477
299.978
300.195
299.936
299.914
300.024
300
299.894
300.074
299.871
300
299.95
300.086
300.068
299.857
300.161
300.068
299.847
299.826
300.125
299.392
300
300
299.867
299.98
299.414
300
300.074
299.016
299.421
299.974
298.862
299.796
300.076
299.802
300.006
300.174
299.884
299.914
300.105
299.961
299.9
299.33
299.999
299.836
299.974
250
299.857
299.95
299.382
299.99
300.031
300.137
300.039
299.467
299.856
300.036
299.904
299.841
299.888
299.594
299.842
300.025
299.847
300.035
299.889
299.976
299.972
299.853
299.884
301.036
299.997
299.875
300
299.936
299.964
299.857
299.879
300.173
300.121
299.843
299.923
300.112
299.908
299.967
299.871
300.223
299.98
299.945
300.216
300.088
299.844
300
299.843
299.855
300.041
300.018
300.068
299.873
300.005
299.98
300.084
295.102
299.938
300.195
299.989
300.028
299.964
299.997
299.857
299.996
300.087
300.193
300.168
300.013
300.103
300.071
300.052
300.154
299.958
300.024
300.155
299.988
300.027
299.701
295.872
300.169
300.192
300.079
299.866
299.813
300.07
299.993
300.081
299.94
299.901
299.987
300.04
299.902
300.353
300.006
299.781
300.079
300.008
300.033
300.031
299.976
299.869
300.085
299.932
299.96
300.17
299.879
299.881
299.912
300.566
282.95
299.961
299.923
299.94
299.852
299.848
299.942
299.806
300
300.064
300.158
300.083
300.016
299.977
300.004
301.045
299.947
299.973
300.206
300.108
300.042
300.014
300.651
299.41
299.574
300.066
299.982
299.399
299.73
299.933
299.388
299.45
300.072
299.925
299.856
299.965
299.908
299.918
299.945
299.987
300.054
300.034
300
299.867
299.947
299.935
299.976
299.355
299.418
299.66
299.993
299.848
299.689
299.999
299.893
299.904
299.929
299.883
299.99
300.03
299.918
299.922
300.071
299.726
299.783
250
299.823
299.366
300.841
299.895
299.996
299.877
299.792
299.759
299.242
300.057
299.462
300.084
299.827
300.067
299.878
299.875
299.762
300.086
299.88
299.887
299.934
299.802
299.799
299.889
300.065
299.835
300.071
299.853
300.011
298.662
300.07
300.234
300.096
300.076
299.265
299.937
299.352
299.999
299.843
299.917
299.894
300.06
299.906
299.875
299.88
299.419
299.512
299.894
299.414
300.094
299.334
300.055
299.499
300.046
299.448
300.012
299.73
300.013
300
299.068
300
300
300
300
300
300
299.842
299.867
300
299.243
299.331
300
299.986
299.932
299.979
299.992
299.832
299.915
300.037
299.91
299.994
300
299.365
299.258
300
299.79
300.127
300.006
300
300
300
299.882
299.284
299.984
299.998
299.999
299.956
300
299.964
299.919
299.343
300
300.11
299.93
300
299.998
299.88
299.875
299.914
299.762
299.918
300
299.913
299.977
299.903
300
299.938
300
299.995
300
300
299.978
299.452
300
299.923
299.975
299.897
300
300
300
299.946
299.662
299.823
300.057
299.879
300
300
300.002
300.077
299.963
299.934
300
299.995
300
299.873
300
300
299.991
300
299.857
299.978
300
300
299.908
300
300
300
300
300
299.482
300
300
300
300
299.899
300
299.944
299.996
299.812
299.883
300
300.024
299.678
300
299.932
299.417
299.943
299.922
299.933
299.542
300.187
299.744
299.491
299.996
299.478
299.883
299.931
300
299.877
299.911
300
299.928
299.856
300
300
299.906
300
300
300
300
300
300
299.419
299.434
300
299.928
299.523
300
300.044
300
300.046
300
300
300
299.981
300
300
300
300
299.928
300
299.861
300
299.932
299.974
299.999
300
300
299.909
299.998
299.947
300
299.857
299.954
299.982
300.043
299.806
299.999
299.943
299.821
300
300
300
300
300
299.999
299.917
300
299.856
299.886
300
299.998
300
300
300
300
299.946
299.901
300
300
300
300
300.067
300
300
300.126
299.962
300.163
299.693
300.22
299.819
299.894
299.987
300.067
300
299.942
299.944
300.034
300.051
299.228
299.995
299.967
299.956
300.057
299.822
300.011
299.874
300
299.846
299.95
300.029
300.037
300.017
300.141
300.08
300.029
300.043
301.285
300.301
299.742
299.998
299.84
250
300.075
299.898
299.828
299.9
300
299.728
300
300.178
300
299.897
299.771
300.2
299.924
299.754
300.037
300.182
299.943
300.71
299.969
299.851
299.748
300.069
299.903
299.757
299.907
299.887
299.706
299.956
299.859
299.962
299.926
300.277
299.988
299.858
299.941
299.876
300.32
299.999
300
300
299.933
299.905
299.882
300
300
300.499
300.736
300.076
299.975
300.09
299.773
300.103
300.048
300.055
299.965
299.878
299.95
300.048
300.029
300.031
297.379
250
299.972
300.017
300.044
299.958
299.757
299.859
300.261
299.991
300.02
300.088
299.899
299.932
299.917
299.712
299.999
299.955
299.923
299.901
299.97
299.944
299.898
299.895
299.88
298.916
299.967
299.932
299.841
299.978
300.477
300.031
299.853
299.899
300.043
300
299.871
300.101
300.078
299.971
299.957
299.911
300.141
300.461
299.869
299.875
299.911
299.934
300.012
299.756
300.249
299.922
299.888
300.142
300.247
300.142
299.851
300.871
300
299.964
299.95
300.149
299.886
300.192
300
299.804
299.918
299.803
300.118
299.929
299.863
299.96
299.988
299.834
300.321
299.869
300.57
300
300
299.873
299.762
300.03
300.014
299.873
300.193
300.202
300.149
299.892
299.933
299.985
299.913
299.969
299.973
299.251
299.836
300.327
300.411
299.989
299.697
299.88
299.898
300.198
299.87
299.972
300.323
300.072
299.981
300.446
299.843
300.611
300.081
299.884
299.977
299.857
299.862
299.926
300.277
299.973
300.43
299.957
300.86
299.834
299.955
300.831
300.262
301.098
300.34
299.911
299.989
300.499
300.169
299.999
299.87
300.294
299.815
299.855
300
300.369
299.966
299.874
299.894
299.893
300.165
299.97
299.937
300.068
299.82
299.813
299.83
299.958
299.961
299.933
300.096
300.108
299.968
300.121
300.676
299.865
299.815
299.906
300
299.713
300.019
300.199
300.12
300.183
300
300.313
300
300
300.386
300.153
300.125
299.995
300
300
300
299.796
299.896
300.09
299.909
300.014
299.899
300.104
300.237
299.996
299.799
299.878
299.999
299.888
300.017
297.119
300
300
300.022
300.338
300.396
299.637
299.983
299.923
299.96
299.791
300.094
300.391
299.965
300.411
300.2
299.866
300.124
300.073
299.419
300.1
300.213
299.892
300.03
300.243
299.912
300.067
300
299.852
300.286
299.854
300.232
300.346
300.322
300.212
300
299.987
300.8
300.072
300.526
300.083
300.072
300.402
300.28
299.975
300.403
300.104
299.415
299.545
299.902
299.207
299.001
300.043
299.972
299.943
300.151
299.404
299.916
299.451
299.428
299.915
299.317
299.999
300.14
299.668
299.8
299.557
300.137
300.163
299.895
299.853
299.967
299.925
299.415
299.998
300.005
299.793
299.916
300.16
300
299.984
300
300
299.731
299.852
299.755
300
300.095
299.844
299.434
300
300.033
299.918
300
299.846
299.622
300.064
299.987
299.498
299.451
299.911
300.239
299.993
300.001
299.889
300.301
299.838
299.822
300.028
300.054
299.27
299.959
299.881
299.343
299.877
300.947
300.128
300.128
300.048
300.055
299.868
299.767
300.094
299.919
300.137
299.973
300.023
299.419
299.893
299.917
300.089
300.44
300.154
300.257
299.504
299.75
299.576
300.299
299.27
299.662
299.878
299.985
299.969
299.472
298.73
299.795
299.592
299.928
300.023
300.176
299.564
300.041
299.767
299.982
300.243
299.899
299.935
300.113
299.56
299.774
300.569
299.053
300.014
299.289
300.07
300.02
299.983
299.994
299.981
299.92
299.906
299.718
299.574
299.835
300.141
299.393
299.507
299.966
299.326
299.492
299.957
299.598
300.151
299.482
300.082
300.147
300.001
299.848
299.498
299.991
299.587
299.992
299.971
299.884
299.957
300.02
299.948
299.41
300.073
299.317
300.081
300
299.393
298.653
300.05
299.999
299.281
299.454
299.44
299.53
299.607
299.983
300.073
300.018
300.055
299.914
299.905
299.795
299.893
299.667
299.828
299.928
299.882
299.856
300.096
299.771
299.763
299.807
299.945
300.003
299.953
300.056
299.944
300.053
299.7
300.054
299.781
299.861
300.168
299.958
299.792
299.956
299.981
300.029
299.714
301.565
300.04
299.842
299.85
300.054
299.499
299.849
299.781
299.697
299.5
300.188
299.027
299.775
299.673
299.366
300.465
299.294
299.404
300.021
299.394
299.998
299.872
299.814
299.673
299.694
299.618
300.048
299.93
299.211
299.467
299.351
299.551
300.151
300.184
299.893
300.201
300.31
299.929
299.578
299.682
299.998
299.881
300.024
299.635
300.347
300.278
300.079
299.938
299.601
300.096
300.239
300.059
300.045
300.16
300.264
299.993
299.974
300.114
300.138
299.979
299.934
299.846
299.856
299.015
298.626
298.819
298.658
299.998
298.786
300.154
299.959
300.836
299.952
299.864
299.97
300.032
300.857
300
299.982
298.963
300.039
300.009
300.101
299.934
300.189
300.042
250
300.102
300.523
299.891
300.143
299.847
299.954
299.828
300.059
300.05
300.311
300.176
299.969
300.037
300.091
300.343
300.016
300.172
299.907
299.931
299.917
299.872
299.934
299.93
299.918
300.052
299.933
300.044
300.888
300
299.865
299.416
299.662
300.158
299.913
299.953
299.558
299.991
300.102
301.208
299.944
300.279
300.075
299.957
300.506
301.016
299.969
300
300.148
300.029
299.964
299.948
300.11
299.951
300.035
299.93
300.056
299.975
299.865
300.08
299.934
300.078
300.112
299.957
300.12
299.894
299.755
300.018
300.151
299.923
300.054
300.112
299.914
300.073
300.198
300.053
300.71
299.961
300.185
299.997
299.961
300.369
299.953
300.084
300.163
299.911
299.987
299.869
300.143
299.974
300.065
300.991
300.082
300.194
300.084
299.962
300.141
299.787
300.823
300
300.059
300.023
299.89
299.967
300.141
300.08
300.049
299.888
300.013
300.398
299.897
299.932
300.178
299.909
300.209
300.085
299.908
300.056
300.027
301.255
300.466
300.179
300.688
300.143
300.777
300.002
300.307
300.871
299.897
300.073
300.068
300.071
300.016
300.14
300.434
300.475
300.007
299.962
299.83
300.059
300.358
300.139
300.069
299.992
299.965
300
300.098
300.957
299.982
301.059
300.046
299.969
300.054
299.991
300.032
300.167
300.017
300.016
300.039
300.08
299.828
300.062
299.996
299.956
299.908
299.891
299.877
300.224
300.846
300.004
300.021
300.097
299.711
300.01
299.776
299.894
300.165
300.077
299.841
299.95
300.182
299.913
300.061
300.151
299.905
300.027
299.992
299.971
300.4
300.054
299.888
300.141
300.09
299.868
299.917
299.975
299.875
299.94
299.882
299.96
299.987
299.994
300.012
299.899
299.955
300.167
300.018
299.965
300.243
299.935
299.98
300.062
299.949
299.882
300.131
299.96
300.109
300.205
300.01
300.064
300.089
300.303
301.367
300.008
299.904
299.946
299.964
300.084
299.866
299.823
299.96
299.766
300.149
300.054
300.06
299.769
299.918
300.038
300.002
300.077
300.216
300.311
299.9
300.012
300.399
300.313
299.907
300.09
299.939
300.196
299.984
299.919
299.953
300.236
300.346
299.907
300.147
299.945
300.118
300.134
299.836
299.998
299.946
300.166
300.349
300.338
300.223
300.116
299.996
300.059
299.452
299.846
299.932
299.757
299.776
300.084
299.909
299.833
300.103
300.052
299.878
300.115
300.18
299.919
300.056
300.101
300.007
299.948
299.933
300.07
299.948
300.106
300.15
299.553
299.902
299.981
299.95
300.039
299.831
299.408
300.078
300.197
300
299.992
299.903
299.97
299.342
299.612
299.999
299.986
299.488
299.972
299.702
300.106
300.137
300.044
300.063
299.35
299.952
299.645
300.277
299.961
300.108
299.901
299.995
299.916
299.903
300.036
299.621
299.953
299.945
300.061
299.907
299.853
300.16
300.049
300.027
298.866
299.941
300.096
299.731
300.091
299.786
299.527
299.472
299.532
300.069
250
299.994
299.802
300.084
299.988
300.109
299.821
300.104
299.945
299.621
299.875
300.129
299.972
299.864
299.177
300.011
300
299.837
299.818
300.1
300.075
299.828
300.079
299.798
299.984
299.857
299.611
299.862
298.559
299.515
300.034
299.825
300.003
299.883
300.013
299.8
299.508
300.018
299.999
300
300.116
300
300.062
299.845
299.999
299.85
299.826
299.803
300.127
300.056
299.905
299.821
299.661
299.8
300.081
299.437
299.633
299.337
300.024
299.448
299.86
299.523
299.999
299.957
298.962
299.995
300.131
299.973
300.111
299.843
300.148
300.013
299.9
300.038
299.818
299.912
299.725
299.868
299.548
299.322
299.444
298.485
299.907
299.766
299.863
299.85
299.784
300.088
298.733
300.07
300
299.472
299.919
299.835
299.846
300
299.87
299.988
298.776
299.855
299.852
300
299.565
299.502
299.937
299.717
299.937
300.108
299.959
300.096
299.988
299.86
299.874
299.877
299.601
299.872
300
299.898
299.962
299.256
299.879
299.818
299.283
299.393
300.054
300.045
299.953
299.939
299.852
299.678
299.296
300.455
299.975
300.023
299.956
299.635
300.372
299.975
300.131
299.546
299.767
299.962
299.764
299.646
299.775
299.558
299.926
299.879
299.957
299.611
298.706
299.604
299.971
299.913
299.414
299.786
299.571
299.921
299.988
299.884
300.116
299.847
299.09
299.888
299.985
299.51
298.825
300.055
299.891
299.827
300.359
299.846
300.082
299.998
299.965
299.912
300
300
299.796
299.877
300
299.865
299.882
299.885
300
300.037
300
299.949
300
299.958
299.95
299.656
300
300.223
299.938
300
299.959
300
300
300
300
300
300
299.959
300.006
299.898
300.041
300.059
299.899
299.805
300.009
300.041
299.73
299.93
299.725
299.886
300.031
299.762
300.113
300.03
299.845
300.205
299.952
299.82
300.125
299.845
300.003
300.082
299.992
299.947
299.822
300.13
299.966
299.976
299.746
299.998
299.739
300.065
299.922
299.885
299.688
299.881
300.023
299.7
299.932
299.968
299.671
300.008
299.973
299.966
299.742
299.814
300
299.981
300.062
299.903
299.902
300.048
299.915
299.996
300.017
299.841
300.115
299.876
300
300
299.967
299.959
299.966
300.079
300
300
299.896
299.902
300
300
300
299.929
299.946
299.999
300
300
300
300
300
300
299.927
299.899
300
299.963
300
299.985
299.999
299.912
300
300.177
300
300
299.926
299.987
299.999
299.939
299.98
300
300
299.936
299.811
300
300
300.239
299.981
300
300
300
300
300.091
300.069
300
299.894
298.946
299.873
299.981
299.997
300.16
300.06
299.821
300
299.93
300
300
299.979
299.928
299.937
299.902
299.871
300
300