/*--------------------------------*- C++ -*----------------------------------*\
| =========                 |                                                 |
| \\      /  F ield         | OpenFOAM: The Open Source CFD Toolbox           |
|  \\    /   O peration     | Version:  2312                                  |
|   \\  /    A nd           | Website:  www.openfoam.com                      |
|    \\/     M anipulation  |                                                 |
\*---------------------------------------------------------------------------*/
FoamFile
{
    version     2.0;
    format      ascii;
    arch        "LSB;label=32;scalar=64";
    class       volScalarField;
    location    "0.2";
    object      k;
}
// * * * * * * * * * * * * * * * * * * * * * * * * * * * * * * * * * * * * * //

dimensions      [0 2 -2 0 0 0 0];

internalField   nonuniform List<scalar> 
32842
(
0.0342793
0.0342935
0.0343274
0.0343274
0.0394708
0.0343274
263.67
320.391
0.0343274
0.0343274
68.6617
28.2684
0.0343274
0.0343274
0.0343209
0.0343314
0.0343274
0.0343274
0.0342964
0.0393156
0.040074
0.0397405
0.039132
0.0343274
0.0389767
0.0343274
0.0343274
0.0375505
0.660178
0.0343273
5.22283
0.954402
122.237
0.0343271
248.136
530.721
0.0390786
0.0343273
0.0343151
0.0343059
0.0343274
0.0400097
0.0343274
0.0343274
0.922469
0.0343274
56.4204
0.0342991
0.0397931
0.862161
185.211
0.0343274
0.964967
0.629638
0.0343274
0.03579
0.0343274
0.359424
0.0343274
0.0343274
332.004
0.961453
0.961691
0.0400497
0.034307
0.0492762
0.0343274
0.974771
0.957085
0.0343274
0.0373647
0.478522
0.957903
0.0343274
0.0343274
0.0342596
0.109158
0.0343274
0.959756
193.733
0.039409
0.0343274
0.0343274
0.963006
0.973553
0.0343274
0.0343274
0.0616029
0.274453
0.0343274
0.039477
0.039766
44.4473
0.0343266
0.0343274
0.0343152
0.958478
0.0343235
0.965804
0.0343274
0.0343274
0.0405658
0.0342958
4.51586
0.958247
0.956884
17.8835
0.03431
0.952412
0.034339
0.0343274
0.0343274
0.204135
0.0343274
0.0343006
0.03988
0.963069
0.725621
0.0342719
0.034307
0.0343274
0.0343274
0.223693
0.0343274
0.0340822
0.960127
0.949741
0.034327
78.6488
0.0343274
0.0343274
0.0344547
0.0454793
0.942806
0.0438902
0.0343278
0.0345451
0.53354
0.0343034
0.0343374
0.959318
0.0343273
0.961577
0.0384052
0.0342977
0.0343274
770.23
0.0343273
0.0343274
0.0343274
0.0344563
0.905667
0.0384161
100.654
0.0343218
0.0343274
0.0343274
0.0343273
0.0342996
0.0343274
0.0342814
0.0343274
0.03902
0.0343274
0.0343233
0.0343273
0.0343274
0.0343274
0.0343088
50.974
0.0330396
0.0410228
52.2656
0.0343274
0.0401844
28.1038
0.0343274
0.0343412
0.0343274
0.0343274
0.0367153
0.0343274
0.0343274
0.0343274
0.963359
0.0343274
0.956835
0.0343274
0.034308
0.0343274
0.0343274
0.687362
0.955823
0.0343274
0.956897
0.034326
0.0343273
0.0343264
0.957728
0.0343274
0.0343211
0.0343268
0.926493
0.496186
0.0245161
0.057378
0.0342974
0.0400706
0.952362
0.0343103
0.0342847
0.0344517
84.448
65.7188
0.0343274
0.0343274
0.0343167
0.034313
0.0342939
0.0343378
0.573559
0.0343274
0.0343274
0.0342934
0.041506
0.949949
0.0343274
0.959545
0.0342824
163.085
0.0343274
0.0343274
0.0343259
0.0343274
244.248
0.0393593
0.0395279
0.0352888
0.0343215
0.961575
0.194595
0.0343274
0.0343067
0.347324
0.034297
0.0343259
0.960245
0.0343274
0.0343274
0.0343274
0.0343274
0.0343274
0.03432
0.960502
0.0343265
0.0343274
0.0343274
47.7063
0.0343274
0.0343273
0.0343274
0.0343274
0.0343274
0.0343274
0.953823
0.0343274
0.0343274
0.0343274
0.0343273
0.0343274
0.0343274
0.964389
0.0343274
0.94882
0.0343274
8.54934
0.034316
0.0399661
0.0343274
0.0343059
0.0343274
32.0023
30.5414
0.0343274
0.0342875
0.0506876
11.886
0.0343274
0.0400615
0.0343274
1032.88
0.0343274
0.956016
108.637
0.210447
0.0342103
0.955182
0.0343274
0.0343262
0.0389296
89.5062
0.0343274
0.0343274
0.0343274
0.0343274
0.0343274
0.0343274
0.0343274
0.0343273
0.959884
0.0343274
0.0343274
0.962885
0.0343274
0.0343274
0.0343274
0.0343248
410.381
0.0343274
0.0343273
0.0343185
0.397057
0.0343274
0.0361228
0.0343274
0.0343274
0.0343164
0.0343274
0.0342791
0.0343274
0.0343022
0.965899
0.0343274
0.0343274
0.0343274
0.0343274
0.97036
0.958341
0.0343274
0.0343274
0.0343274
0.0342973
0.0346411
0.0343274
0.959248
0.0343274
0.0343274
0.953161
0.961102
0.959106
0.0343823
28.2845
0.0343039
0.958313
0.0343274
0.0343274
0.0390531
0.034321
0.0343274
0.0343121
0.0343274
0.0343274
0.0343248
0.810253
0.0343274
0.0343263
0.0343274
0.0343274
0.0350615
0.0387532
0.0343274
917.769
0.0343274
0.0428851
0.0343274
0.953272
0.0396496
0.0343274
0.0344306
0.0390797
0.034283
0.959525
0.961293
0.034327
0.0343188
0.0343274
0.0343274
0.0343274
0.0343274
0.0343274
0.0343274
0.0343273
0.0343274
0.0343274
0.0343119
0.0343274
0.0342825
0.0343089
0.0343192
0.0343286
57.7507
0.0343274
0.0342851
0.0343029
152.191
0.0343366
0.0343271
0.0426392
0.0343274
0.0390561
0.93659
0.0343274
0.0343274
0.0342895
0.0343274
0.0342978
0.0342932
0.0342857
0.0343544
5411.2
0.0343431
0.956619
0.0343274
0.0401351
441.545
0.0343274
0.0343274
0.0343274
0.0339901
0.0343274
0.0342693
0.0343274
0.0343274
0.961735
0.0393701
0.960712
0.0342826
2034.6
0.13346
0.962261
0.0400253
0.986209
0.0393066
0.963205
0.0343274
0.0342892
0.036668
0.0343274
0.0386094
0.0344254
0.0343274
0.0343255
0.0343411
22.5978
0.0383106
0.0343268
0.0342881
0.0396454
0.0343228
0.0342992
0.0343261
0.0403862
0.0343274
0.0343274
0.0343274
0.0343022
0.0343274
0.962243
0.0343274
0.0343481
0.0343274
0.0404714
0.0395304
0.0343274
0.034292
0.962814
0.960591
0.0343274
0.0343274
0.0343274
0.0343274
0.0394276
0.0342873
0.531697
0.962648
0.0343274
0.0343274
0.964266
0.034331
0.0343274
0.0392456
0.0343961
0.0368062
0.0344071
0.95755
0.0401347
0.954589
0.960629
0.0347829
0.0343272
0.0397995
48.4733
0.0343324
0.960586
0.0395462
0.965676
0.0383421
0.0343274
26.3237
0.0396754
0.0343274
0.959479
0.0343272
0.956192
0.0343274
0.0343274
0.0395157
0.0425349
24.4862
345
0.321642
2.74037
39.1332
20.2774
15.4347
0.962647
0.0342821
0.0343274
0.0342906
0.964289
0.612427
0.967774
0.136727
0.0343485
0.0343274
0.0384226
0.757439
0.0343274
937.078
0.268477
0.0343635
220.523
0.0330718
7.12385
0.0343274
0.0343274
0.0343365
0.960957
156.009
0.0343274
0.0405323
0.0343271
0.179837
0.955413
0.0343273
0.034279
0.0343274
0.0343274
0.350494
0.0861185
0.0343274
0.0343274
0.0343258
0.957147
0.490207
0.966857
0.0342835
0.0343274
0.0343274
2.66991
0.965452
0.959171
0.542923
0.955843
0.0343274
0.0326126
0.955606
0.0342882
0.635955
0.0343274
0.0394659
0.0343274
0.0343635
0.0395675
0.039088
0.0343274
0.0343273
0.0343271
0.0343062
0.965084
0.040196
0.0343274
0.0343156
0.717127
0.0343274
0.049698
0.739964
0.969429
0.0343244
0.0343274
0.374535
0.47145
213.883
0.0343198
13.3299
0.966166
0.871473
0.0345149
0.542924
0.0343274
0.0343274
0.0343274
0.0343274
0.0343274
0.685623
0.039651
0.0343274
0.0343274
0.0343273
0.0343274
0.0343231
0.0343274
0.0343341
0.650938
0.96477
0.034321
0.0343274
0.36868
0.763248
0.125971
0.0343255
0.712915
0.0343274
0.0343274
0.0343239
0.676603
0.962032
0.0343274
0.0392498
0.0343274
0.104834
0.0343274
0.0343274
0.0343274
0.0343274
0.672959
0.0343274
0.0343274
0.0348097
0.683616
0.0342861
0.0343274
0.0343274
0.960909
0.97159
0.0343274
0.957252
0.0392988
0.0343274
0.0343274
69.2207
11.7738
0.0343274
0.96475
101.577
0.034337
0.0294774
0.0343273
0.0343274
0.0398126
0.0396166
0.0346746
0.0343333
61.5736
0.0343274
0.0357986
0.0343274
0.0343274
0.46295
7.16011
0.0555866
0.0408386
0.0343274
0.0343274
0.0387184
0.0391804
3.42227
141.972
0.895315
4.271
0.0342999
0.0343468
2.35594
0.0343274
0.546322
0.0343135
0.0343242
0.971733
162.713
0.0343265
0.0343229
0.0343274
0.0343274
0.0343182
0.0343274
0.0342902
0.0343274
0.0343274
0.964547
0.0343274
0.0343268
0.0343274
0.97058
0.0343274
0.0343265
0.0342824
0.943566
0.0343274
0.0343024
0.0342472
0.0343274
0.0343239
0.0343274
0.0344258
0.0343264
0.0343274
0.0343272
0.0342955
0.0282388
0.0343245
0.039775
0.0364749
0.0403835
0.0343274
0.0396998
0.043505
0.950263
0.0343063
0.034304
0.0385491
0.534854
0.0343274
0.950288
0.0391223
0.0343274
0.0343274
0.0345842
0.0343209
0.0343212
0.961866
0.0343274
0.0343274
0.0343098
0.0400515
0.953279
0.0343013
0.0392359
0.0343274
0.0386731
169.908
152.321
0.0388193
0.0343257
0.96346
0.0343274
0.0343274
0.0343274
0.0342958
0.0343165
0.0343238
0.620334
0.0343274
0.0345198
0.961583
0.0393049
0.0343273
0.0343445
0.0343274
0.96415
0.0408009
0.96241
0.0343473
0.960007
0.949006
0.0395528
0.0343274
0.038408
0.0343268
0.0404562
0.0343272
0.0343274
0.0399164
108.4
0.949885
0.0343253
0.184666
0.0343258
0.95216
0.0343362
0.0343274
0.0343274
0.0343274
0.0343182
0.0343226
0.0343238
0.0343274
0.0343274
0.034315
0.0343184
0.0342984
0.964303
0.0343666
0.494219
0.0342925
0.0342831
0.0395277
0.19687
0.0342788
0.0343135
0.0399597
0.0343274
0.034335
0.0343274
0.0413992
0.973072
0.0343274
0.0343274
0.0342922
0.0343262
0.0343274
0.0343183
0.0343274
0.0343274
569.911
0.0343274
57.0485
0.0342974
0.0343274
0.0343194
0.0343504
0.0388212
0.0343054
0.0343274
0.0343274
0.0343274
0.670174
0.0343274
0.0342834
0.961814
0.034325
0.956882
0.0343274
0.0977459
0.034321
0.0343267
0.96774
82.944
0.0342874
0.0343253
31.8388
0.0392149
0.0343274
0.0343271
0.0343274
0.0343273
0.0343273
0.955923
4.28313
0.954933
0.0343274
0.958078
0.0343274
0.0343182
0.0343094
0.0378861
0.0365395
0.0343274
0.0342802
0.0343274
0.0342914
0.0343163
0.0343274
0.0343226
0.034319
0.0343489
0.107968
0.0394776
0.0343274
0.717718
0.977763
0.0343274
0.0306991
0.255531
0.0343274
0.0343274
0.0342934
0.948634
0.0343274
0.0343274
0.955346
0.0397706
0.0343274
0.0343274
0.0343274
0.0343273
0.0365204
0.873491
0.0343274
0.0343274
0.958741
0.0343274
0.0343274
45.7419
0.0342844
0.0343274
0.0343274
0.0343274
0.957989
0.0342921
0.034287
0.0343274
0.0343274
0.0407405
0.0343274
0.958697
0.0394975
13.6913
0.0343274
0.0343274
0.0343274
0.034321
0.0343001
0.0343274
0.163178
0.539512
0.0382256
0.0835283
0.0343274
0.0388083
0.0343274
0.0343274
0.0343269
0.0343274
0.0343273
0.0343274
0.0343274
0.0343274
0.0342822
0.0343274
89.0104
0.0342954
0.96925
0.0343015
0.963823
0.965186
0.0343274
0.0390238
0.959603
0.451673
0.761702
0.0758149
0.0342838
0.0343274
0.0343274
0.0343274
0.543216
0.0343274
0.533952
0.285453
0.184611
0.208328
0.0365767
6.32866
0.0343274
0.230331
473.817
0.0343274
219.365
0.0348037
0.034357
0.0343274
0.0343274
1.50783
0.0343102
0.958096
0.0396807
114.633
0.946726
0.960227
0.0420951
0.0343274
0.0343004
0.0343142
0.0343189
0.0343448
0.0343274
0.0343274
0.0342816
0.628143
0.0411024
0.0343185
98.5176
0.0343303
0.0342972
0.0343361
0.0343064
20.7094
0.419439
0.034315
0.0343051
0.0342956
0.957239
0.574238
0.0342925
0.0606472
0.946268
0.19287
0.0343421
0.0343281
180.453
0.965525
0.0343255
0.0343274
0.0343274
0.0343259
27.7948
0.034338
0.95002
0.0343235
0.0343274
0.0343274
0.0343171
0.0348668
0.310742
0.0343271
0.034288
298.324
0.661652
0.9589
0.0343269
21.6648
158.656
0.0343274
0.0343274
0.0343233
0.966989
4.27747
0.0343274
0.0378252
0.0276137
0.0343272
0.0356812
0.223702
0.0343166
0.0343274
0.0343274
0.0343274
1.57267
0.0343359
0.0343318
0.0187245
37.8253
0.0369648
0.0361578
0.0369488
0.0342787
82.1343
0.950335
0.0343038
0.96597
0.968094
5.4412
0.0357661
8.55616
1.16576
0.0343209
171.196
0.960023
0.029297
0.0342958
0.0343229
0.0343274
0.0342962
0.0343113
0.0343368
0.0343247
29.18
0.0343274
0.0343274
0.105543
0.0343274
0.0343255
111.98
0.541775
0.0382221
0.0351134
0.0342929
0.561108
6.75335
0.953935
0.034322
0.0342879
0.0343389
0.79843
205.706
0.0405974
0.0347867
267.001
0.0343009
0.256338
0.0342801
0.0343274
2.25354
0.041192
0.0343433
0.190995
0.034319
0.0343249
0.678949
297.121
67.7576
0.034334
0.0342977
0.0343274
0.0342946
0.0344646
0.0344669
0.0361225
0.0343274
0.0343274
20.9825
0.0342882
0.0343108
0.638181
0.0343274
5.74638
27.5388
0.0343274
0.0343041
17.242
2.94716
4.11275
1.91156
0.0343007
39.7412
0.357396
0.0430572
28.9963
0.0345408
0.960944
0.0343184
0.0343274
0.0343001
0.762035
0.0434059
0.0342887
0.340281
0.962478
0.206288
1.147
0.0343274
0.621747
0.655583
0.0361639
0.0343274
0.0343274
0.036238
0.0342812
0.0342869
0.684125
0.0344754
3.27403
0.0700492
0.0478895
0.0361925
0.0343111
0.0343104
5.60255
1.02065
0.0343274
0.0343602
0.0343274
0.621445
0.0343375
0.679565
95.5308
0.0343884
0.621824
16.5477
0.121511
17.0331
38.5127
114.986
0.0344329
0.962992
11.1486
0.0349409
0.0381461
0.0343274
22.6727
0.0343391
0.0343314
0.0454349
0.0346021
0.956659
0.0365522
0.0396109
0.95952
396.634
0.0343248
32.1513
0.0415317
0.956411
6.46736
0.0343358
0.027036
0.593942
76.6482
0.0415566
0.0343274
0.964454
0.0343274
0.0385614
2027.53
0.0391436
0.0342963
0.958203
0.577829
0.0343263
1.52288
0.0343274
0.0343274
0.0343269
0.0343187
0.487668
0.0388423
0.0343274
0.618399
0.970273
0.034331
0.0343244
30.8835
0.034327
0.0343274
0.0343295
0.710335
0.653103
0.034315
12.6866
0.0343274
55.166
0.680302
0.0346503
0.956869
8.74747
0.176568
0.0519295
0.0343104
0.809949
0.0346793
22.6341
173.857
0.0570753
0.0401037
0.196076
0.0343274
40.2365
0.0343248
0.956025
0.034324
0.0714438
0.0342887
0.0398859
0.0362722
0.362603
3.0266
0.0397926
0.0342873
93.1425
0.955016
0.0343248
0.0343274
15.3608
0.688783
0.0343274
0.966345
0.0343406
0.0343321
0.0203517
0.966479
0.0343215
0.034294
2.79828
114.882
0.0393951
0.0343387
0.040288
0.034327
0.0343176
0.383465
0.0343274
0.954996
0.960381
0.034337
0.047416
0.0343274
2.60395
175.17
0.0343274
0.0445537
9.59876
0.0343274
0.0343274
0.0343318
0.693938
0.0343274
0.0344164
0.0342877
0.0405633
0.0344125
0.0344681
0.0343235
0.0343274
0.0343056
0.0342804
0.0343274
0.0343255
0.0343175
0.0343164
0.0343162
15.9112
0.0343676
0.0342914
172.275
0.0342155
0.034288
0.0342878
0.0343422
0.0343274
0.0405009
0.0559846
0.0343273
0.0343269
0.0344242
0.0346001
0.676629
52.1396
0.043119
0.949352
64.339
0.0342855
0.0343273
50.4397
86.8583
0.0395719
0.96176
0.0343208
0.0343273
143.432
0.0396722
215.797
0.0389418
0.0410919
0.0381646
0.0343271
170.282
0.0343063
0.0343274
0.0407879
119.537
2.1477
0.949059
100.78
0.0391609
0.0387575
0.0631008
0.03431
174.194
38.3344
0.0389639
67.3048
0.0343274
44.6656
0.0343272
0.0348212
0.0343262
0.167976
0.0343274
16.2361
0.034309
0.0342908
0.0408878
0.495129
0.506466
0.0343994
0.0343274
0.0343071
1.68351
0.0342934
0.0343274
146.075
0.0343274
14.0511
0.0343269
0.0342987
0.0343922
0.0343288
0.0343101
0.0343274
4.98422
0.0343239
0.13533
0.933225
0.0342896
0.034277
0.0343394
0.0343192
0.034277
0.0343244
34.207
0.0343228
0.034325
0.0343274
0.0400273
0.947288
0.0343273
0.0343163
0.0343274
194.17
0.0343274
0.034346
0.0343453
0.0343358
0.0343173
0.959715
0.0343066
0.0343014
0.0343232
206.607
0.0343639
0.0343221
0.0343224
0.959943
0.0343532
0.034411
0.0347916
0.0343034
0.0344202
0.0343273
0.352383
0.0343274
0.0343326
0.0338465
0.196946
8.00884
0.0343261
31.7441
41.3379
65.9736
0.0342934
64.4315
0.0348315
0.0387761
0.0343162
14.1895
25.8537
0.0343261
0.0343274
0.03432
0.0342904
0.0699664
29.9866
0.0343274
0.0343274
0.0341138
0.0343193
0.0343522
43.4699
0.0342851
211.03
147.151
0.0343274
0.0346076
0.834975
0.0345921
0.033708
0.0343274
0.0343355
0.95676
0.0342858
165.705
0.0343264
0.0344568
0.0342886
0.961963
0.0404531
0.0343274
0.0343274
0.0343274
0.0343274
0.0343889
0.0343221
6.11075
0.0343274
0.0348308
0.0345445
0.0456939
0.0343268
0.11835
0.972222
0.0343271
0.834052
0.402044
0.0417138
0.0343234
0.0343274
0.961874
0.0319491
0.662171
0.471623
0.0342949
0.0343274
0.0455277
0.034324
0.0353469
0.0343274
0.0343225
0.0399232
0.127155
0.0342967
0.0343274
113.34
0.0343274
0.0343203
0.0343274
0.0343274
9.96301
0.948579
52.5892
0.0343274
0.034326
0.0343185
67.8273
0.0346272
53.1769
164.435
0.0401653
0.034321
0.034304
0.034292
0.0343274
187.885
205.144
0.0343274
0.0342914
0.034321
0.0343274
0.955671
0.0343274
0.964086
0.0343274
0.963495
0.0399588
0.0281306
0.0343274
0.0343274
0.0343274
0.03431
0.0343072
0.0342876
0.0343274
0.954468
0.0343095
0.0144642
0.91963
0.0698483
0.0343274
0.0343095
0.0343274
0.0343274
0.0344105
107.615
0.0343274
0.0343233
0.034327
0.970113
0.0362402
178.976
1.27974
65.7357
0.958463
0.0454067
481.512
0.0342547
0.957172
0.0342772
0.0342663
0.0411978
0.928168
17.2425
0.0579438
0.0343198
0.959463
232.012
0.0343274
0.0343274
0.0343683
0.0343256
0.0343133
0.0343068
0.0387503
99.1759
0.0343274
24.2818
85.5207
0.0343274
0.0343274
0.0343274
0.0343112
0.0343274
0.0343274
0.0343273
0.0401005
0.809661
0.0343651
0.0352642
50.2001
0.0344276
0.0661841
0.964101
0.0343262
0.0397069
0.0355533
0.034485
0.0397132
0.0403501
0.0357695
0.963479
0.0342776
14.286
0.0343274
0.0343274
0.0349191
0.0343344
0.0343493
0.0342852
0.0343274
20.8662
0.0343274
0.0343444
0.0343258
0.0343274
0.0343279
0.0343207
0.0343337
0.0343245
0.963473
0.0343274
0.0343738
0.0342886
0.0344539
0.0343241
0.0343274
64.5896
0.0342987
0.0343184
0.948938
0.0344396
0.0343246
0.0342673
0.0353328
0.0888954
25.273
0.0345693
0.0343274
0.039236
0.0342986
0.0343279
0.0342889
0.282488
0.0342883
0.0343259
0.0343273
0.910107
0.0387146
0.034305
0.0398271
0.0342871
0.963277
0.0393965
0.0343392
0.0342222
0.0343274
0.0343274
0.0343304
0.0343274
0.0343274
0.0342962
0.0403155
0.0343274
0.03431
0.034617
0.962126
0.10773
0.0343274
0.0344278
0.0411
0.0344658
0.713143
0.955853
0.512076
0.034707
0.0343269
0.0402035
0.0343274
0.0345764
0.0343274
27.8167
0.948032
0.0400259
0.958885
0.964609
0.0343135
0.0343274
0.966666
0.0343274
0.0343234
0.554656
0.0390029
0.0342985
0.0343274
0.0343942
0.0343267
0.03431
0.0342868
0.0343274
0.0343213
0.971874
0.0343271
0.0343274
0.0343265
0.034324
0.0343274
0.370011
0.592491
0.0403047
0.0343149
0.0393037
0.0506531
0.034327
0.0343274
0.0343265
27.5897
0.959925
1.02695
0.0343289
158.214
0.0343273
0.0343162
0.911214
0.952115
0.0343391
0.0342938
0.0343274
0.0342833
0.0342963
0.0343248
0.0343282
0.0343342
0.034822
1.16579
0.9645
0.0342833
0.0342829
191.708
0.0342842
36.1334
0.0343274
0.0391185
0.0343246
0.0343274
0.0343274
0.0278926
0.839805
0.0342665
0.0343123
0.0343274
0.0343274
0.030243
0.0343225
0.966745
0.0387541
26.1219
0.953036
0.0343274
39.5129
0.0343274
0.0343267
0.0343274
0.0343274
0.0343265
0.0342979
0.959135
0.0343274
0.0475757
0.0343274
0.0343577
0.0343258
246.712
0.0343268
0.0343221
43.5059
0.959879
0.0343274
0.0343074
0.0343273
0.0343236
0.157586
0.0343274
0.961417
0.0343121
0.0343182
0.0727682
25.1074
0.0343398
0.0342094
0.0343139
0.0344195
0.0343274
0.0343274
72.0475
0.0343361
0.0343274
0.0424793
0.0343274
0.0343265
0.0343235
0.0343274
0.0342758
0.0498801
0.0343274
0.0343486
0.0193428
52.0969
146.109
0.0343274
0.0343274
46.8622
0.0343274
0.03438
58.5306
0.0343223
38.1242
84.2263
113.791
0.958308
0.03431
0.034351
0.0342962
0.0343274
0.0343455
0.95617
0.0342954
0.96134
0.034323
0.161268
0.109386
0.0342979
148.7
0.0343016
0.0343417
0.035226
111.746
0.962389
0.0343274
11.226
0.0343239
0.0343274
0.0343274
0.0343366
0.0343326
0.0343274
224.003
0.954646
0.0343938
0.0343221
0.0344173
0.0343274
71.7897
0.0343274
12.9013
0.0343274
0.0343274
0.0343058
0.0390018
0.0343227
0.277238
81.0526
0.03433
0.034321
0.0343274
23.5686
0.0343178
0.0343274
0.0342954
40.1013
0.034327
0.0343274
0.0343274
0.0345278
164.191
134.379
129.457
0.099298
140.487
0.034306
0.0343308
0.0342951
0.0374933
0.0342913
0.0342836
5.81001
0.0368791
0.561802
0.0342996
0.0343207
0.962617
0.963806
115.736
0.0343274
0.0343102
119.003
28.3378
0.077876
39.6601
0.714709
0.0343274
0.0343349
13.3153
0.0343272
0.0343274
0.0392907
40.1262
0.0308539
313.951
0.960003
111.418
0.0343014
0.521152
13.9474
0.0343044
0.0343173
38.3957
0.0343369
0.0342854
0.0343274
0.0343007
0.0345434
0.0382856
0.0343466
7.56794
0.0343251
0.0343274
0.0343014
0.0343026
0.0380676
0.218997
0.0342959
0.0343254
0.0343274
0.716559
170.895
0.0343158
0.0343251
0.0340858
0.0342831
0.0346194
0.0343274
0.0343274
181.835
0.0344814
1.23308
0.0343274
13.7565
0.0343268
0.0453971
0.0315381
28.7176
0.0343274
0.0345587
0.0214232
0.0343255
0.0343274
0.0343057
0.0343274
0.0343263
0.0354776
0.14248
133.815
9.06108
13.9321
0.0393082
10.0164
0.0394538
0.0409776
0.0343274
0.0343274
0.039383
0.034327
0.0385802
0.0343274
0.0343441
0.0343131
0.0389631
0.0343273
0.0346814
0.0405939
0.0343274
0.0343274
0.0343345
0.0343269
0.034329
0.0343274
0.9488
0.0343274
0.0343149
14.6498
0.0343269
72.4469
105.171
0.959215
25.5613
0.958467
93.2808
0.959201
0.0343274
0.0343274
0.0343271
0.952705
0.0343274
256.855
0.0342973
0.0343074
0.0343274
0.0343273
0.0343273
0.0342926
0.034315
0.0342608
0.0343273
0.962015
0.0343269
0.0343274
55.3393
0.034346
0.0343079
443.131
0.955669
0.0343274
0.0343273
0.0343274
0.969772
151.031
93.604
38.8649
119.742
0.0343127
0.0343274
0.0343274
0.0343254
0.0343257
0.0343274
0.0387992
0.0343274
0.0343274
0.0343274
0.0343507
0.0342996
0.0342836
0.0343643
0.0343244
0.450379
6.19515
25.2851
0.206007
0.693378
0.0343173
0.0343003
86.8674
0.0341179
0.0343274
50.616
0.0396204
0.0343079
0.0343339
0.0461201
20.4961
0.50596
0.0343094
0.0343274
0.0393178
100.757
0.0343274
0.0343238
0.0343274
0.218258
0.0349971
0.0343896
0.0416769
0.0343274
0.0343274
0.0343274
0.0342878
0.0342979
0.0343153
0.0343105
0.0343257
0.0343274
0.0343086
0.0343106
0.0342941
0.0343058
0.0348687
0.0343274
0.213708
0.0350539
103.771
0.372467
0.961026
0.963007
0.0543195
0.0345424
0.0343274
0.0343322
0.0343036
0.45564
0.941174
0.95576
0.0344487
93.2305
185.152
0.029273
0.0393135
0.0391394
0.0287936
0.0343412
153.241
0.22985
0.697309
0.0343263
0.0343274
0.0343238
0.0343224
0.948672
0.0348412
0.0850758
0.0300483
0.0343077
0.0343192
0.0342913
0.034324
0.0349115
0.0361471
0.0343057
0.034292
0.971261
0.0291029
0.0343274
0.0342986
0.0342864
0.034318
0.0343274
0.0343262
0.955285
0.0343274
0.0343274
0.0343274
14.9942
0.0343138
0.0346272
0.0347591
0.0343193
0.00860597
0.0343245
0.0343424
0.0342978
0.0352502
25.721
0.707865
0.0343472
0.0304439
0.0342776
0.0342963
7.2734
0.969258
273.32
0.202211
0.959974
0.0343274
0.0372833
0.0343274
0.0343274
0.0343274
0.0343013
0.0343274
48.8575
0.0343172
0.692516
0.139988
0.0343419
0.0343075
0.0457115
0.0344154
0.965892
0.0343274
0.0644817
0.0343274
0.0343101
0.0341873
0.0343268
0.0342925
206.969
0.0343172
0.0343245
0.0342954
3.3024
24.3788
0.0343233
0.371807
0.0343259
0.034308
0.0343122
0.0343274
0.0343256
0.0342961
0.0342864
0.0343274
0.0343219
0.0343159
0.109328
0.0343274
0.0296952
0.0343014
0.051844
0.0399457
0.741122
242.912
0.0343274
0.0343274
0.0343115
0.414765
1.75354
0.0343274
0.0342726
0.298334
18.0064
0.0343795
1.04748
0.0264763
0.0342795
0.951049
0.957239
0.0342902
0.034306
0.0343534
0.0343348
0.964908
0.0342228
14.8815
0.0343274
0.0343273
100.918
171.682
0.0343674
12.0121
182.327
0.0343372
0.0343264
0.0400588
0.0343034
277.704
0.0403669
0.0386219
0.0402101
0.0343163
0.0342936
155.937
0.0590923
0.0342929
0.0343081
0.0342963
0.0343272
0.0343274
0.0343274
0.957361
179.744
0.875227
0.0343274
0.0342864
0.0343274
0.034347
0.0343856
0.0343212
0.0343068
0.0344423
0.123166
0.0342943
0.933455
0.959392
0.0343274
0.0343342
0.0342848
236.411
0.0343274
0.0345199
0.042012
0.96885
0.0343394
0.0343274
0.0343113
0.0343272
0.0343527
60.0532
0.0344594
0.0343483
6.34204
0.1302
0.0343202
37.8974
0.0342739
0.0346297
0.0346565
0.0343028
0.967574
0.0343179
0.0343257
0.0343463
0.0342765
0.0343076
0.0342804
0.0406573
0.0343216
0.0368748
0.0343345
0.0345699
0.0344725
0.0343223
0.0343049
0.0343192
0.0417675
0.954282
108.357
0.0346538
0.0344722
0.0387571
0.0343273
0.0417444
0.959395
0.0217719
0.0398328
0.74397
0.0343388
0.0437946
0.0359292
0.0343274
203.784
26.2109
0.0348806
0.0397686
0.0388788
0.941929
0.0343224
0.0343051
0.0344197
0.26602
0.0344041
0.034321
0.147909
0.0343537
0.0343487
0.0413992
0.811565
762.926
0.0343203
0.920265
0.0343273
0.916231
0.0343398
0.0343242
0.951381
0.034322
0.0421763
1.00334
0.0344462
0.0407208
153.493
0.0344069
0.662458
0.0343396
0.967029
5.1054
0.0382011
0.0343143
0.0342954
0.125362
57.9719
1.77491e-05
0.0342946
0.0343139
45.3642
0.0343271
0.0343252
0.105498
0.0373476
0.0398973
0.0343156
0.03428
0.0343032
0.962999
0.0343567
0.0343125
0.0343274
0.467366
0.0343362
0.0343274
0.0350787
0.0432202
0.0342898
0.0343297
52.3318
24.5152
0.0343274
0.0343269
0.9351
0.320656
0.0343244
0.903774
0.0385186
0.0423284
0.627206
0.0342919
0.034785
0.0391165
0.034326
0.0343139
0.963197
0.0347204
58.3156
0.0342785
68.0034
0.693073
0.0831107
0.944553
0.034605
0.0678289
1.1062
55.8681
0.943431
3.79659
0.955269
0.0343096
0.0343016
0.961643
0.0343273
0.0342923
0.956748
0.704763
0.0343343
0.0343195
0.0343162
0.0343184
0.0400911
0.957547
0.0343013
0.134284
0.0343186
0.0342848
4.06892
0.964248
41.8908
0.0343906
0.974916
2.51419
0.0625318
84.1166
0.0343274
0.0343243
0.0343245
0.0343115
0.0390172
0.04278
0.0343245
0.0343122
13.9568
95.0122
0.0400629
50.6919
0.956483
41.2207
0.0388089
123.813
0.0343029
94.0934
0.0391474
0.961467
0.0343264
0.0343274
7.86617
0.0343274
0.0343274
0.0343266
0.0343274
0.0343274
0.0389845
0.957219
0.00490529
0.0343274
8.37728
57.3621
0.0389142
0.0343274
0.0343274
0.0343136
0.0343263
0.22642
0.0343203
0.951652
0.952783
0.0343274
0.0343274
96.4136
0.906058
0.971707
0.962602
0.0342915
0.040509
0.963899
0.0343274
0.0343274
0.0343269
15.8986
0.0343274
0.0343274
0.0343274
0.0343274
0.0397008
0.0343274
0.0344167
36.1021
0.0366214
0.0428232
0.0343167
0.956858
0.964324
185.081
0.0269804
0.0343274
247.77
0.0343274
0.0343274
0.0343274
0.969139
0.0343274
0.0401207
0.969788
0.0343274
0.0343274
0.958625
0.0343274
0.0343274
469.698
0.967916
0.0344896
0.966858
0.0343274
0.0343274
0.0343274
0.0343274
0.0343274
395.698
0.0343274
0.963719
0.0395099
0.0343274
0.0343274
161.919
0.0343258
0.949115
0.0391664
0.0343274
0.0343274
0.0343274
0.0343274
0.0387299
0.959115
0.0343274
0.039924
0.956555
0.0343274
0.0343274
0.0392044
0.0343274
0.0343274
0.039353
0.0390172
0.0343274
0.0343274
3.7163
0.955284
0.0397521
0.962721
0.963011
0.0348523
0.967459
0.0343274
0.0343274
0.0343274
0.0343274
0.0343274
0.0344305
0.0373801
0.0343274
0.0391556
36.7818
0.039663
0.0343325
0.0343274
9.05522
0.44127
0.0387375
3.04251
0.0343274
2.02002
0.0343274
0.0343274
0.0343274
0.0343274
0.953834
0.0343274
0.964274
0.0343274
0.0343274
0.0343274
0.0343274
0.0397624
0.0387128
0.955235
0.966956
0.0343274
0.0343274
69.1995
65.1402
0.0343274
0.0343274
5.3816
0.968645
0.0344253
0.960171
0.0343191
0.0343274
0.0343274
0.0343274
0.0343274
0.0389084
0.96352
0.968756
0.0343274
0.0343274
0.0394486
0.034304
0.959439
0.0343272
0.0343274
0.034287
0.0399735
0.0391019
0.0398386
0.0343274
0.0386337
0.959498
0.0343273
0.034293
0.0342641
0.960577
0.0343086
0.0343274
0.0343025
0.0343398
0.0343274
0.964031
0.0409553
0.0343274
0.0343274
0.974264
0.034307
0.0343274
0.950134
0.94953
0.0402621
0.0343274
0.0343274
0.0401341
0.0343274
0.0343274
0.034316
0.0343274
0.0343274
0.0343274
0.0343274
0.0343274
0.531919
0.0343274
0.0343274
0.0348384
4.52597
0.0350878
71.5818
214.559
0.0343309
0.949575
5.37461
0.0367209
0.0393318
82.3789
0.0343274
0.955652
0.119291
4.36196
0.118374
0.0400326
49.6894
0.493612
0.0397223
9.21481
0.0343356
0.0343274
0.164029
0.0342916
0.036065
0.255838
116.949
0.0348236
25.7355
0.0512097
0.122015
0.595019
124.078
0.0343273
0.0343274
0.0343274
409.631
0.0346593
0.0342917
0.0395822
0.0343245
0.0343274
0.0343264
0.964022
0.0342631
0.0398184
0.0343224
0.034322
0.0343205
0.0343352
0.0587065
0.038511
0.0343351
0.54833
34.3452
0.955677
0.0343191
0.956539
154.314
0.968518
0.0376711
0.034342
0.0343239
0.0384254
0.0766817
0.0400133
0.0343254
0.040114
58.4836
0.0343045
0.0343365
0.962266
0.0343274
3.52277
0.0388548
0.0343274
0.963329
0.034961
0.0343246
0.0388114
0.0400242
0.960953
2.20606
0.485017
0.0342969
0.955264
0.0406866
0.0343268
0.0343198
0.0400966
0.953543
0.0343274
0.0343274
0.0343192
0.946812
0.0386096
0.958534
0.767135
525.392
36.6745
0.963633
0.963747
0.0343168
0.0343309
0.0343274
15.7794
0.0343264
0.0396008
0.182177
0.0371129
61.4155
26.4606
83.8593
0.0343274
24.1403
9.42336
0.0343255
0.0342969
0.0409584
0.0343941
0.0343115
0.0343274
0.188437
0.0343286
0.0343338
0.0343537
0.034406
168.244
0.158189
0.0343204
0.0342952
0.959705
0.0343274
0.0343272
0.231978
0.958158
0.0388976
0.906087
0.0343245
0.0392853
11.8752
0.0343274
0.0343271
0.961027
0.0392915
0.0748965
0.0343267
139.321
0.965222
0.957026
0.0342679
6.12999
0.0344751
0.0343274
177.241
0.0390987
0.0343154
0.0343274
0.0345134
0.0343373
0.0345328
0.0343274
0.0625449
0.0342858
0.0342943
0.0343535
0.035024
0.0343371
0.0343377
0.0343252
0.0343231
2.41824
0.0344646
0.535121
0.952747
0.0343274
0.738936
0.692435
0.121428
0.392326
0.201312
127.462
0.120032
9.32489
0.03431
0.0357095
0.0343274
0.0968697
0.0343402
0.0343274
0.637342
0.0342846
32.7785
232.718
0.0347682
0.0343272
0.0343255
0.0343474
1.66162
0.0548641
0.0343382
0.812803
0.0345888
0.0343274
0.0364007
0.0343181
27.8557
234.752
0.0343186
0.0343274
0.0343129
0.034487
0.0342944
47.0263
0.0652521
17.2597
0.0343274
43.9271
0.0343354
0.760693
257.836
93.1901
42.2245
0.216241
0.0341728
0.0343274
53.4989
46.0473
0.0343274
0.0344334
24.6145
0.0343353
0.0343349
0.0343274
19.0687
0.96066
0.0343274
0.0343274
0.0343274
0.85332
0.295579
0.0343144
0.0342869
0.0343272
0.0418372
0.0343272
0.0343383
0.0343512
0.745131
61.6965
0.901976
0.0343266
0.151436
0.445052
0.0343272
0.0343258
0.0354285
0.0408478
0.0343988
0.0343204
1.92561
0.0724707
0.493331
0.0343274
183.006
0.0396019
0.0343274
193.775
0.58833
0.987991
0.148395
0.95804
0.0343274
0.0343274
0.034361
0.0342863
0.0347068
0.0343572
18.9698
0.0343135
0.585915
2.24788
0.0343274
0.0347355
0.0343376
0.0343274
0.0608992
0.0343329
74.3431
0.0343274
0.0343274
0.0347028
0.0358609
111.702
0.711181
0.0343274
0.349365
0.0343254
0.0342922
0.579941
0.282227
0.0342852
0.0344045
0.818587
0.0343274
9.14439
0.0366806
0.61799
0.0837671
0.15915
0.195919
0.0629731
0.0354678
0.0343565
0.495712
0.0343274
0.0343274
126.21
0.992477
36.6855
60.7679
78.1023
1.02421
0.0343274
0.0343366
152.533
0.0665424
0.262568
0.0362658
0.0338251
0.11994
52.659
31.6114
204.679
0.0261893
50.4585
18.0114
0.038475
3.37752
0.397671
0.0282068
0.0394192
0.964777
0.0343455
61.2695
0.0404698
54.277
304.722
0.034327
28.5597
0.0343274
0.0353195
0.802039
0.0348851
0.553513
0.165066
0.0360453
0.960052
0.0343379
0.0343216
0.960549
0.308883
0.0343274
0.955588