/*--------------------------------*- C++ -*----------------------------------*\
| =========                 |                                                 |
| \\      /  F ield         | OpenFOAM: The Open Source CFD Toolbox           |
|  \\    /   O peration     | Version:  2312                                  |
|   \\  /    A nd           | Website:  www.openfoam.com                      |
|    \\/     M anipulation  |                                                 |
\*---------------------------------------------------------------------------*/
FoamFile
{
    version     2.0;
    format      ascii;
    arch        "LSB;label=32;scalar=64";
    class       volScalarField;
    location    "0.2";
    object      p;
}
// * * * * * * * * * * * * * * * * * * * * * * * * * * * * * * * * * * * * * //

dimensions      [1 -1 -2 0 0 0 0];

internalField   nonuniform List<scalar> 
32842
(
101008
100979
101325
101325
101325
101325
101266
107861
101325
101325
97737.1
102550
101325
101325
101325
101277
101325
101325
101087
101325
101325
101325
101325
101325
101325
101325
101325
101325
99966.5
101325
99698.1
101325
105842
101323
105165
105458
101316
101324
101255
101187
101325
101325
101325
101325
101232
101325
99020.8
101143
101325
100071
105030
101325
101325
98306.9
101325
100899
101325
98622.4
101325
101325
103042
101208
101325
101325
101195
99528.7
101325
101321
101325
101017
101325
101172
101325
101325
101325
101066
98045.5
101325
101325
98718
101325
101325
101325
101325
101325
101325
101325
101268
100161
101325
101325
101325
100231
101325
101325
101247
101325
101325
101325
101325
101325
101318
100735
100876
101325
101325
101873
100761
101058
101102
101325
101325
100865
101325
100670
101325
101325
100908
100740
101195
101325
101325
99255.1
101325
100816
101325
101317
101323
99828.8
101325
101325
100694
101313
101300
101180
101258
100757
101479
101171
101350
101325
101325
101325
100712
101110
101325
107122
101325
101325
101325
100870
101265
101325
98418.7
101204
101325
101325
101325
101119
101325
101015
101325
101325
101325
101198
101324
101325
101325
101193
100756
100983
101112
100449
101325
101325
100987
101325
100777
101325
101325
101283
101325
101325
101325
101325
101325
101058
101325
101201
101325
101325
101127
101325
101325
101325
101316
101325
101319
101325
101325
101285
101321
100904
99359.9
98592.5
101119
101133
101325
101325
101216
101040
101241
100990
101095
101325
101325
101257
101253
101109
101326
100947
101325
101325
101104
101036
101306
101325
101325
101022
99374.7
101325
101325
101317
101325
100345
101325
101325
101304
101288
101325
98848.5
101325
101192
98980.8
101114
101314
101325
101325
101325
101325
101325
101325
101213
101325
101319
101325
101325
101164
101325
101325
101325
101325
101325
101325
101325
101325
101325
101325
101324
101325
101325
101325
101325
101325
101325
100708
101252
101257
101325
101186
101325
100485
98123.4
101325
101052
100826
100700
101325
101325
101325
102284
101325
101325
100386
98802.2
101031
101325
101325
101317
101325
105072
101325
101325
101325
101325
101325
101325
101325
101325
101325
101325
101325
101325
101325
101325
101325
101309
100053
101325
101325
101268
99998.2
101325
101325
101325
101325
101255
101325
101007
101325
101164
101325
101325
101325
101325
101325
101325
101325
101325
101325
101325
101130
100681
101325
101325
101325
101325
101325
101325
101325
101352
100429
101145
101325
101325
101325
101325
101284
101325
101240
101325
101325
101309
99511.2
101325
101325
101325
101325
100940
101325
101325
110102
101325
101182
101325
101066
101287
101325
100766
101325
101025
101325
101169
101323
101271
101325
101325
101325
101325
101325
101325
101325
101325
101325
101192
101325
101026
101206
101273
101208
100664
101325
101047
100980
100469
101295
101323
101041
101325
101318
101107
101325
101325
101059
101325
101132
101104
101049
101452
102487
101376
101303
101325
101325
66946.5
101325
101325
101325
101217
101325
101057
101325
101325
101320
101325
101325
101030
98537.6
98237.5
101325
101325
99334.3
101212
101325
101325
101078
101325
101325
101325
100641
101325
101313
101206
100028
101325
101321
101069
101325
101244
101109
101325
101325
101325
101325
101325
101105
101325
101325
101325
101089
101325
101325
101325
101325
101094
101325
101325
101325
101325
101325
101325
101325
101062
98754
101325
101325
101325
101325
101057
101325
101313
101269
101325
101218
101289
101325
101325
101325
101415
101324
101325
100992
101277
101325
101323
101325
101325
101325
101013
101188
101325
101325
101324
101246
101325
101325
101282
101018
100682
105071
98901.7
101174
101239
101285
99969
101325
101030
101325
101088
101325
98168.9
101325
100643
101410
101325
101325
103437
101325
110058
100456
101467
99284.2
101040
101371
101325
101325
101342
101325
100069
101325
101325
101324
101408
101325
101325
101008
101325
101325
99526.8
102395
101325
101325
101230
101270
101330
101325
101036
101325
101325
98206.7
101325
101289
99029.3
101325
101325
100807
101319
101070
99157.9
101325
101325
101325
101360
101325
101325
101325
101325
101323
101161
101325
101325
101325
101250
98186.2
101325
101279
98333.3
101058
101325
101325
98036.9
98130.3
101182
101277
102848
101325
99771.6
101149
100113
101325
101325
101325
101325
101325
100357
101325
101325
101325
101325
101325
101299
101325
101327
100394
101325
101247
101325
102005
100214
101345
101313
100762
101325
101325
101300
98505.9
101325
101325
101325
101325
101528
101325
101325
101325
101325
101177
101325
101325
102237
101056
101377
101325
101325
101325
101316
101325
101325
101325
101325
101325
97882.1
99153.3
101325
101325
98044.7
101321
101232
101325
101325
101325
101299
101199
101257
98096.4
101325
97711.5
101325
101325
100339
99941.6
101268
101416
101325
101325
101325
101325
100039
98741.2
99208.3
99048
101046
100978
99060.7
101325
98857
101237
101303
101282
98580.3
101325
101293
101325
101325
101269
101325
101065
101325
101325
101313
101325
101321
101325
101325
101325
101319
101030
101069
101325
101163
101071
101325
101303
101325
101102
101318
101325
101324
101119
101334
101325
101310
101325
101325
101325
101293
101048
101325
101190
101174
101293
101034
101325
101321
101325
101325
101325
101134
101282
101282
101179
101325
101325
101212
101325
101304
101157
101309
101325
101325
99179.1
99539.5
101325
101314
101325
101325
101325
101325
101121
101249
101303
99334.9
101325
101144
101325
101290
101325
101090
101325
101302
101272
101325
101405
101325
101316
101317
101325
101325
101321
101325
101324
101325
101325
102251
101271
101312
99616.5
101325
101089
101336
101325
101325
101325
101273
101292
101302
101325
101325
101245
101268
101138
101325
101304
101020
101097
101030
101325
100895
101005
101236
101325
101325
100987
101325
101236
101325
101325
101325
101034
101325
101325
101110
101325
101325
103790
101325
99644.3
101104
101325
101191
101213
101319
101184
101325
101325
101325
99529.4
101325
101062
101325
101325
101001
101325
99845.7
101285
101321
101325
100316
101110
101269
100762
101108
101325
101323
101325
101325
101325
101325
100618
101229
101325
101272
101325
101268
101230
101157
101325
101325
101012
101325
101074
100893
101325
101295
101272
101353
101152
101277
101325
101174
100481
101325
101117
99462.8
101325
101325
101106
101325
101325
101325
101325
101325
101325
101325
101325
101325
101324
101190
101325
101325
101325
101325
101325
102553
101041
101325
101325
101325
101317
101063
101098
101325
101325
101031
101325
101325
101325
99719.9
101325
101325
101325
101284
101148
101325
98903.6
99671.6
101325
101079
101325
101325
101325
101325
101322
101325
101325
101325
101325
101325
101029
101325
98785.6
101119
101325
101158
101325
101325
101325
101325
101325
99417
99346.8
100103
101031
101325
101325
101325
100225
101325
100697
100225
99901
100009
101325
100654
101325
101426
107780
101325
100191
101441
101470
101325
101325
104544
101215
101294
101325
102900
101325
101325
101016
101325
101152
101207
101272
101301
101325
101325
101024
101371
101287
101234
100844
101307
101111
101223
101191
98566.6
99136
101246
101181
101118
101325
101263
101080
100726
101089
100723
101370
101277
99054.7
101255
101313
101325
101325
101245
100948
101288
101283
101301
101325
101325
101228
101202
101115
101323
101069
103927
101234
101223
101322
101259
98642.6
101325
101325
101299
101308
100849
101325
101325
101435
101324
101239
101430
101223
101325
101325
101325
99804.4
101330
101283
101372
102294
101304
101320
101111
101001
99544.7
101317
101172
101207
101144
101244
101412
100617
101329
101284
114429
101318
101237
101120
101297
101325
101106
101222
101304
101272
106805
101325
101325
101110
101325
101325
99200.1
100754
101087
100710
101101
99159
100077
101325
101218
101069
101228
100173
100108
101039
101278
99748.9
101154
100976
100739
101325
100009
101325
101372
100830
101234
101309
100537
99495.9
101043
101329
101133
101325
101090
101175
100693
100611
101325
101325
100953
101071
101219
100426
101325
101284
101172
101325
101176
101151
100592
100599
101167
101154
99571.3
100909
101240
100613
101239
101325
101268
101325
101001
102293
101063
101071
100016
101309
100659
99713.6
101325
100892
100941
101332
101325
101325
100864
101023
101020
100626
100625
99817
101294
101408
101325
101221
101216
101167
100611
101325
101179
101325
100114
101385
99807.4
108193
101273
98977.7
102643
100378
101246
100874
100065
101154
101325
101209
101436
101325
101325
101044
101355
101056
101349
101352
101325
101397
101202
101032
101043
101277
100975
101033
101308
103274
101333
101097
99524
101077
101059
101325
101325
101325
101226
117624
101325
101068
101313
98901
101318
99951.9
101325
101325
101322
101230
99214.5
101325
101325
101030
101289
101301
101069
102283
101323
101325
101130
101256
101374
101247
100083
101325
100512
100001
101271
101325
99792.5
101043
101230
101039
100704
100452
100444
98177.6
98627.1
101325
101298
101325
99827.7
101325
101325
101303
100853
101063
101325
101303
99009.8
100734
101325
101058
100003
101269
101309
101325
102716
99623.8
101325
101325
101365
100972
101416
101325
101202
101108
101406
97897
101325
101184
101052
101323
101193
100882
101325
101303
101124
101216
101332
101325
99224.2
99127.9
101325
101023
101268
101325
101325
101309
98522.5
101325
101211
101118
101322
101269
101258
101145
101325
101185
101019
101325
101313
101200
101255
101254
101240
101109
101076
99388.2
100811
101057
101058
101021
101325
101322
100772
101325
101133
101224
101333
99991.4
100849
100972
101315
100743
101046
101324
100299
100421
101325
101248
101111
101325
99240.4
101325
99954.9
101263
101323
101325
101323
100052
101191
101325
101073
100605
98932.4
101325
100779
101325
101325
100997
101232
100449
101279
101325
100162
101325
97869.1
101324
101188
101316
101431
101325
100833
101079
101088
101066
101416
100181
100687
101325
101195
101291
101105
101325
98588
101325
101356
101322
101106
101371
101290
101179
101325
100573
101303
100764
101080
100948
100993
101355
101273
100989
101306
100330
101296
101310
101325
101181
101324
101325
101252
101325
100075
101325
101396
101395
101340
101261
101325
101166
101159
101261
99589.6
101322
101218
101294
101325
100978
101096
101379
101172
101276
101324
100892
101325
101315
101249
101234
101151
101259
100548
100445
100634
101104
100077
100957
101325
101201
100146
100754
101317
101325
101181
101077
100554
101031
101325
101325
101330
101225
101006
98882.2
101038
99425.8
100667
101325
101167
101188
100824
101233
101325
101304
101288
101043
100103
101319
101144
101071
101232
101063
101325
101325
101325
101325
101186
101292
100923
101325
101443
101474
101254
101322
99917.1
101325
101324
100727
101470
101048
101184
101325
101324
101365
99923.1
101353
101114
101325
101302
101303
101427
101325
101294
101325
101155
101126
101325
100792
101325
101280
101325
101325
99992.8
101066
101183
101325
101317
101268
99548.3
101458
99293.9
99330.7
101149
101284
101175
101095
101325
100078
99645.8
101325
101088
101285
101325
101238
101325
101322
101325
101325
101223
101433
101325
101325
101325
101019
101194
101024
101325
101325
101057
101371
101294
101376
101325
101184
101325
101325
101130
100274
101325
101299
101323
101430
101118
100421
98970.8
100600
101144
101364
104856
101285
101325
101041
101092
101119
101019
99076.8
101059
101159
101325
99078.9
101325
101325
101237
101313
101235
101193
101252
98841.4
101325
100483
98536.8
101325
101325
101325
101222
101325
101325
101324
101282
100672
101080
100756
100599
101000
100741
101325
101325
101325
100715
100798
101325
101325
101053
101153
100760
100823
101325
101325
101137
101319
101417
101043
101325
100442
101325
101371
101325
101325
101284
101216
101299
100937
101325
101325
100960
101070
101249
101300
101325
99334.3
100917
101127
101078
100814
101308
101078
100827
101031
101199
100761
101325
100516
101120
101289
101066
98595.6
101070
101316
101325
100621
101325
101181
101325
101061
101027
101193
101363
100689
101325
101325
101303
101325
101325
101123
101325
101325
101189
100975
101325
101265
101325
100780
101325
100832
98517.5
101325
101475
100839
100813
101325
101325
100774
101325
100618
101094
101325
101325
101242
101236
101325
101325
101325
101300
100770
101325
101140
101325
100981
101321
101214
101062
101325
101287
101325
101323
101325
101320
101304
101325
98389.8
99531.8
101313
101245
101325
101196
101323
101325
101320
100577
101325
102464
101300
98271.6
101325
101254
101116
101317
101360
100873
101325
101037
101126
101309
101301
101335
101343
101150
101322
101032
101031
99778.1
101043
100032
101325
101325
101308
101325
101325
97851.8
101001
100911
101144
101325
101325
100988
101294
101325
101321
100386
101321
101325
100341
101325
101321
101325
101325
101319
101135
101325
101325
101132
101325
101170
101256
103647
101321
101292
97601.6
101325
101325
101170
101325
101301
100770
101325
101118
101107
101267
100749
101272
101323
100752
101239
100802
101325
101325
100380
101319
101325
101232
101325
101319
101300
101325
100756
101124
101325
100734
100804
101134
101045
101325
101325
100076
101325
101303
99007.5
101293
98927
98983
99019.4
101324
101214
101428
101105
101325
101391
101325
101114
101257
101297
97730.8
101168
101109
99003.5
101159
101369
101226
102739
101325
101325
103610
101238
101325
101325
101256
101305
101325
99374.7
101031
101156
101292
101144
101325
100296
101325
100526
101325
101325
101197
101293
101295
100676
99109.4
101286
101174
101325
100468
101172
101325
101117
100506
101323
101325
101325
100947
100421
100432
99422.1
100743
100201
101188
101267
100817
101074
101061
101031
100544
101288
99895.8
101146
101283
101325
101325
99534.6
101325
101215
100318
102905
101255
100461
101491
101325
101210
100810
101324
101325
101323
100713
100952
99631.8
101304
100335
101158
100078
100456
101178
101261
100051
100934
101052
101325
101124
100765
100912
100782
99668.8
101311
101325
101159
101375
101325
100416
101102
101311
101325
100843
99679
101251
101229
101232
101037
100715
101325
101325
99774.6
101174
100520
101325
100546
101322
100649
100641
101102
101325
101168
100920
101313
101325
101155
101325
100969
100864
100621
100763
100576
99540.1
101325
98290.1
101325
101323
101325
101325
101325
101323
101325
101325
101000
101160
101324
101325
101158
101325
101325
101325
101319
101322
101282
101325
101325
101325
101246
100494
101322
99953.3
99877.3
101325
100152
101325
99646.5
101325
101325
101325
101323
101325
101325
99242
101130
100944
101325
101325
101324
101099
101246
101207
101325
101322
101322
101325
100460
100573
101200
98494.6
101054
101325
101325
101325
101325
100318
100472
98743
100227
101231
101325
101325
101209
101315
101325
101323
101325
101325
101325
101078
101145
101038
101503
101303
101380
100593
100406
101236
99675.1
101261
101151
100354
101331
101325
100261
101325
101201
101321
101200
101894
101362
101209
101325
101309
100871
101325
101302
101325
101505
100621
101308
101325
101325
101325
101325
101068
101112
101217
101217
101314
101325
101205
101218
101109
101186
100754
101325
101479
100642
100266
101395
101325
101325
101366
101456
101325
101220
101279
101196
101292
101295
101191
100839
99490.7
101299
100593
101325
101163
100637
100593
101433
100976
101318
101325
101220
101220
101049
100780
101360
100627
100626
101225
101090
101304
100560
101178
101096
101097
101325
101154
101325
101119
101266
101232
101325
101318
101325
101325
101325
101325
99674.8
100738
101183
101366
101274
100616
101267
101327
101133
100788
100565
100593
101400
100599
100994
101101
100682
101322
98320.9
99238.3
101295
101325
100553
101325
101325
101325
100846
101325
99893.3
101260
98744.5
100692
101370
101197
101338
101109
101325
101325
101181
101325
100954
100858
101321
101100
99795.6
101261
101307
101120
99740.1
100539
101299
100605
101316
101201
101227
101325
101314
101124
101054
101325
101290
101252
100749
101325
100814
101052
101491
101325
101071
100207
101325
101325
101224
100607
100446
101325
100997
99576
100551
100576
98951.7
100726
101015
101104
101318
100600
101188
101445
100888
101187
101448
100222
101325
101324
99305.3
105864
101093
99488.1
100007
101273
101114
101207
101172
99051.4
101182
101303
101275
101216
101087
99316.9
101328
101040
101202
101123
101324
101325
101325
101325
98912.8
99509.5
101325
101059
101325
101409
101159
101252
101168
101177
100992
101093
101341
101119
101325
101220
101044
97006.1
101325
100795
101185
101167
101350
101325
101194
101324
100747
99661.9
100762
101392
100484
100372
101278
93292.7
101185
101162
101234
101166
101318
101265
101315
101380
100744
100757
100830
101268
100750
100753
100747
101255
101118
101293
100684
101134
101033
101325
94077.5
101068
100718
101270
101325
101360
101289
100666
101300
100968
101357
101017
100664
101325
96352.8
100594
100765
101303
101165
101281
101294
101238
100790
100272
100771
101239
101173
101298
101408
101251
97853.4
100791
101280
101342
101291
101304
101337
101305
101106
101211
100987
100813
100872
101061
98915.2
101010
100074
101318
101137
101281
101040
101233
100750
98391.5
100417
100648
101126
101239
100437
101323
101311
100508
100566
101005
101250
101014
101171
101325
101459
101230
101325
100925
101272
101325
100867
101155
101064
101298
100370
100420
101325
101322
101328
100767
101186
101270
101325
101062
100192
101097
100928
101325
101316
101235
100845
100750
104822
100999
100187
98337.7
100860
101039
101240
100930
100977
100543
101035
100667
101228
101186
101093
101325
101325
101081
101306
100954
101295
101095
101254
101268
101320
101296
101156
101396
101269
101043
103579
101285
101271
101134
101199
99934.6
100854
100783
101325
101306
101306
101224
101320
101292
101307
101201
100697
100425
101313
100115
101312
100028
101297
100350
101145
100487
101053
101320
101318
101325
100327
101325
101325
101325
101325
101325
101325
101325
101321
101325
99691.7
99720.5
101325
101325
101325
101237
101318
101557
101280
100989
101117
101325
101325
99778.1
99916.4
101325
101325
101044
101314
101325
101325
101325
101322
100048
101325
101325
101325
101325
101325
101325
101153
99919
101325
101056
101267
101325
101325
98834.8
101245
101325
98782.8
101325
101325
101325
101325
101325
101325
101325
101325
101325
101325
101325
101325
99192.8
101325
101215
101325
101325
101325
101325
101325
101325
98220
101325
101323
101325
101325
101325
98793.7
101314
101227
101209
101325
101325
101325
101325
101325
101325
101325
101325
101325
101325
101325
101325
101325
101325
101325
101325
101325
101325
100529
101325
101325
101325
101325
101310
101325
101325
101325
101325
101325
101325
101040
100734
101325
101325
100392
101325
101175
101325
100617
101123
101313
100552
101325
100545
101325
101325
101325
101325
101325
101325
101325
101325
101325
101325
101325
101325
101325
101325
101325
101325
101325
100446
100527
101325
101325
100670
101325
100917
101325
101002
101325
101325
101325
101325
101325
101325
101325
101325
101325
101325
101151
101325
101324
101325
101059
101325
101325
101325
101325
101325
101325
101325
101088
101121
101276
101196
101325
101164
101358
101325
101325
101325
101325
101325
101325
101166
101325
101325
101325
101325
101325
101325
101325
101325
101325
101139
101325
101325
101325
101325
101325
100704
101325
101325
101249
100089
101133
99938.9
99494.7
101271
101325
100257
100877
101325
99564.9
101325
101316
100769
101729
100453
101325
99855.7
100542
100745
100448
101291
101325
101184
101074
100397
100834
94541.7
101164
100669
100541
98526.1
97908.6
97637.4
101325
101325
101325
100697
100797
101092
101325
101307
101325
101319
101325
100657
101325
101293
101291
100635
101333
100768
101315
101253
99978.9
96620.4
101325
101236
101322
96635
101325
101325
101375
101303
101325
101092
101325
101313
101325
97065.8
101159
101346
101325
101325
96073.7
101325
101325
101325
101229
101306
101324
101325
101325
99134.2
98213.5
101139
101083
101181
101321
101154
101222
101094
101325
101325
101273
101212
101319
101323
103114
104579
97518.4
101103
101309
101258
101303
101325
101226
101319
101323
100606
101318
97965.9
100041
99504.4
101325
98183.9
98196.8
101313
101108
101052
101329
101224
101325
99231.8
101231
101113
101450
101157
100432
101034
101280
101109
101166
101325
101324
101054
100977
101325
101066
101307
101119
100995
101325
101324
101325
101325
101365
101320
99815.4
101325
101325
101230
101133
101106
101325
99011.9
101325
101249
101325
101236
101316
101241
101325
101225
101043
101093
101042
101304
101348
101221
101204
101237
99912.4
101224
99377.9
101325
101325
101111
100032
101456
101455
101242
100795
101202
100667
101210
101248
101325
101103
101335
101325
99133.6
101039
100545
99895.1
101351
101324
101269
101412
101324
101326
101321
101183
101034
101325
101209
101266
98362.3
99834.9
101223
101325
101169
101097
101113
101161
101278
101158
101325
98450.4
101334
101263
99526.9
100642
98367.2
99477.9
101173
101325
100522
100149
101325
101271
99056.5
101335
101338
101325
100716
101325
101325
101325
101325
101266
101386
101243
101062
101284
101121
101324
101069
101058
101363
98881.6
101168
101111
101474
98365.7
101324
101315
101116
101325
101378
101145
101346
100913
101338
101325
98982.3
101325
101325
99174.4
100570
101189
101430
101325
101325
101325
101062
101056
101199
101065
100362
101076
101235
99087.9
101325
101188
101351
101325
101282
101288
102170
101325
101325
101327
101406
100710
100462
101325
101342
101191
101084
101356
100898
101046
100777
101391
101325
101364
100842
98489.6
100994
100099
101202
101261
101233
101089
100956
101325
101325
100353
101239
101138
100847
101214
101617
101325
101157
98804
100986
100725
100957
100863
101283
101287
100124
100340
100625
100426
99046.7
101325
99006.4
99407.3
100879
101325
101325
100749
100371
101325
100591
99463.2
101277
100855
101325
100897
100819
100862
100928
100960
101232
101325
101349
101225
101325
100583
101325
100672
101306
101255
101266
101325
101163
101325
101325
101325
101322
100767
101325
101277
101324
100162
101325
101004
101335
101325
100605
100738
101161
101200
97920.5
100531
101349
101383
101358
101172
101350
99074.1
101118
101308
101107
100983
100132
101368
101325
100279
98864.5
99541.5
100591
100737
100988
101088
101324
100876
101082
100834
100816
100952
101152
100751
101270
100722
100842
99203.7
100658
100913
98837
98367.2
100559
99101.3
99320.8
100895
100846
100928
101309
99702.6
100609
100897
100658
101233
100843
100670
100859
101048
99273.3
101325
100919
101205
101182
101146
100656
100877
99432
98706.5
100927
99256.4
100946
100875
101276
101045
101230
101325
101263
100892
100664
100839
100569
100189
99060.7
100500
100253
100543
101024
100126
101087
100666
100846
100869
101275
101252
99458.6
101119
100624
101083
100278
101325
100128
101169
99867
100519
96636.6
99945.7
96752.4
101325
98931.9
100113
101009
100906
100143
100679
100464
100669
100893
101291
101077
100608
100981
100870
101376
101028
100783
100682
101300
101248
101324
101062
100822
101204
101063
101149
101324
101046
101282
100804
97715.2
101092
100778
100930
101292
101265
100399
101316
101129
98265.7
100053
100550
98380.5
99603.8
101077
101037
100852
100651
100552
101378
98713.5
100732
100416
100931
100686
100859
100837
100137
97891.9
98741.9
99821.1
100133
100079
101325
100842
100841
100707
100856
100751
100769
101256
100217
100534
100519
100658
100592
100711
100821
101078
98133.8
101272
99300.6
100399
100872
101333
101262
100563
98476.9
98198.7
100745
100767
100720
101111
98564.3
101070
101153
101044
98503.2
100598
101134
100941
101237
99836.3
101308
101313
101307
99442.3
99683.2
99145.7
99755.2
101325
99649.7
100780
99401.7
99347.2
99761.4
100925
101151
100651
97710.9
101325
99222.3
99398.7
101032
101153
101138
101330
101016
101061
101926
101018
97764.8
101185
101182
101280
101053
101097
101040
100597
96638.3
97039.3
101169
101019
101108
96676.2
100918
97314.1
101312
101235
99269.4
99752.8
99669.6
101160
98763.2
101146
101493
101033
97097.1
101325
101325
100717
101325
97841.1
101089
101318
100475
101136
99692.3
98930.7
99570.8
96837.6
100928
100141
100197
96953
101296
101325
98552.6
100692
100207
101288
98790
99832.4
101069
101367
100750
99260.5
101251
100880
99416.5
98254.5
101142
100959
101017
99568.2
100081
100691
101110
99466.2
100919
101108
101193
100898
100930
100986
98160.3
101284
101151
101266
101304
97959
99734.5
101217
101131
98699.4
100314
101325
100502
99759.9
101142
97183.4
101114
101062
96281.5
99935.2
101163
101166
97320.6
101325
100799
101071
101365
101096
101091
100855
100639
101394
101214
97216.1
101169
98473.6
97544.4
101005
100786
100942
99474
100659
101279
99130.3
98834.6
100972
96959.9
100113
100237
100480
97015
97315
101315
100825
100990
101017
101065
100524
100243
98885.4
101041
101075
101322
100957
97401.4
100947
100997
101090
99511.6
101325
101051
97165.4
99353.8
97408.3
100930
101149
101153
99971.1
99878.8
101201
100521
101077
99370.6
100795
101341
100981
101134
101064
101123
99267.5
101125
101075
98950.4
98094.5
98791
98962
101325
100400
101291
101321
98129.1
101064
101069
101174
101084
101142
101054
98654.7
101286
100914
101317
100166
98946.1
100682
101328
101088
95575.3
101056
101059
101333
101242
101303
101076
98820.2
101280
98423.4
100938
101121
101223
99354.5
101286
101331
97387.1
101081
101076
101170
101038
99210
101017
101048
99066.7
101088
100387
100944
101191
101129
98796.9
101167
101111
101206
101049
101154
101325
101226
101294
101318
101221
101254
101267
100884
101183
101136
101372
100085
101347
101161
101120
101324
101148
99892.3
98841.4
101147
101344
101413
101370
101209
101222
101226
98797.9
101044
101466
101332
100813
101055
101218
101418
101362
101070
101244
100811
101237
100869
101325
101213
99805.1
101199
101365
101095
101265
100981
101324
101319
100659
101108
101325
100969
100867
101314
101137
100794
101340
101046
101325
100993
101071
100709
101066
98942.4
101325
100855
101325
101276
100890
100057
98219
100653
101325
98392.2
101230
101197
100168
100644
100773
100775
100499
101235
100771
97817
100871
98330.8
100600
100176
99780.6
101325
96451.2
101325
97814.3
101325
101082
101325
101141
101098
100913
100921
98913.7
100615
101345
101241
101182
99209.5
98111.2
100688
99134.3
100674
100882
101031
101283
100849
100960
100606
101052
118837
101080
101324
98174.2
101023
100885
101319
101083
101330
100643
101221
101190
100146
101099
100350
101345
101325
101244
101064
101128
98449.2
100885
98371.1
101297
100087
101325
99504.6
100815
99843.6
98734.5
101030
101064
101146
101239
100365
101152
100036
100481
101257
101325
101063
101325
101087
101366
101014
101056
98552.3
101049
100940
100894
101034
101321
100937
100840
101153
100492
100881
99652.5
100836
100787
101179
100590
101325
101325
99097.6
101209
100598
101325
100918
101161
101092
101213
101028
101362
101323
100951
101323
101150
100612
99739.9
100441
98902.1
101303
100806
101295
101199
100933
101230
100012
101187
101325
100638
101011
100806
100843
101325
100660
101188
99860.1
101134
101064
101325
100650
100640
101055
100801
101240
101030
101068
101133
101223
101235
101483
101312
100936
101104
101325
101238
101338
100116
100897
99237.8
99338.7
100812
101020
101193
101266
101370
100883
99363.7
100067
99558.4
101270
101184
101366
100861
99700.6
101361
101283
100815
101324
101046
100911
98362.6
100869
98778.5
101277
101313
101139
99305.9
99893.5
100768
101414
101294
100734
101364
100798
101182
101325
101158
100879
99022.5
99417.8
101214
101322
100848
99201.5
101013
101230
101320
100200
100924
101128
101208
101468
101322
101325
101325
101271
101325
101325
101272
101253
101108
101325
101029
101325
101466
101325
101325
101331
100802
101325
100661
101035
101325
101346
101325
101325
101325
101325
101325
101325
100898
101315
101325
101161
101176
101344
101301
101296
101245
101055
101021
101325
101155
101345
101314
101128
100636
101219
100777
101355
101325
101194
101217
101291
101181
101290
101294
101262
100635
101277
101304
101367
101219
101325
100766
101187
101118
101235
101193
100533
101325
101325
101077
100642
100372
101188
99767
101315
101238
101325
100201
100707
101325
101325
101192
101158
101325
101055
101325
100764
101321
101325
101325
100028
99657.2
99385.4
100707
101325
101325
101236
101135
101325
101325
101325
101195
101165
101325
101325
101325
101325
101325
101325
101325
101033
101280
101325
101325
101325
100850
101325
101430
101325
100942
101325
101325
101325
101325
101325
101325
101325
101325
101325
101325
101016
101325
101325
100740
100928
101325
101325
101325
101325
101283
101027
101325
101136
98540.1
101166
101325
101325
100674
101365
101171
101325
101250
101325
101325
101114
101399
101426
101337
101258
101325
101325
101301
101325
101325
101325
101286
101263
101325
101325
101325
101325
101325
101325
101325
100995
101325
101325
101253
101325
100689
101450
100771
101325
101325
101380
101325
101325
101390
100893
101325
100321
101325
101276
101516
101325
101325
101325
101325
101325
101130
101325
101325
101323
101325
101325
101325
101489
101325
101451
101325
101325
101325
101275
101149
101319
99731.6
101127
101039
101321
101325
101255
100740
101169
101087
101325
101339
101325
101325
101086
100624
101325
100697
101325
101324
101353
101158
101295
101325
101324
101061
101312
101324
100612
101325
101363
101312
101325
101325
100864
100724
101325
101325
101256
101325
101324
101325