/*--------------------------------*- C++ -*----------------------------------*\
| =========                 |                                                 |
| \\      /  F ield         | OpenFOAM: The Open Source CFD Toolbox           |
|  \\    /   O peration     | Version:  2312                                  |
|   \\  /    A nd           | Website:  www.openfoam.com                      |
|    \\/     M anipulation  |                                                 |
\*---------------------------------------------------------------------------*/
FoamFile
{
    version     2.0;
    format      ascii;
    arch        "LSB;label=32;scalar=64";
    class       surfaceScalarField;
    location    "0.2";
    object      phi;
}
// * * * * * * * * * * * * * * * * * * * * * * * * * * * * * * * * * * * * * //

dimensions      [1 0 -1 0 0 0 0];

oriented        oriented;

internalField   nonuniform List<scalar> 
62453
(
75.4388
25.815
-70.1154
-27.5706
31.0468
0.666049
-38.7709
6.78585
-1.47014e-10
-4.55462e-11
-3.40653e-11
4.69768e-11
-7.92624e-11
-2.64365e-11
1.95598e-10
1.28521e-10
-7.67076e-11
5.79751e-11
-3.11147e-11
-6.70833e-11
-1.12392e-10
6.98875e-11
-1.19354e-10
2.31438e-13
41.4842
33.6026
-51.0257
-35.7347
49.6915
-43.8041
-45.237
-1.20709e-10
3.30647e-10
9.24404e-11
9.21486e-12
-2.31848e-10
-1.5624e-10
1.44652e-09
-3.96377e-10
7.85302
-37.9462
35.1699
42.6433
-30.5275
-21.783
0.000378032
0.000175322
-0.000200082
0.000748358
1.42257e-11
5.43679e-11
2.52194e-11
7.99815e-12
-1.71313e-11
-1.77133e-11
2.00889e-11
-7.3077
-11.4884
26.332
-2.43726
-5.27898e-07
2.28006e-06
1.22937e-06
6.98572e-07
1.48655e-10
-9.44508e-11
-2.5702e-11
9.15167e-11
110.183
-71.8116
52.931
-140.147
2.74803e-11
-9.50773e-11
-8.17046e-11
7.26469e-12
2.26818e-11
1.31767e-11
-3.14933e-11
-4.87074e-12
9.73948e-07
-1.45682e-07
4.47103e-07
-2.51802e-07
-9.50014e-11
2.21794e-11
-4.10991e-11
7.85063e-12
-7.5129e-12
2.88517e-11
-3.69072e-06
1.40344e-05
-1.47782e-06
-1.9651e-08
8.14406e-11
-1.28332e-11
-1.75404e-10
-2.02422e-11
1.07785e-10
7.27347e-11
-6.31939e-11
-4.03341e-11
164.566
30.5984
-202.576
0.0916655
0.00487236
-0.00801251
-0.00627174
18.7906
30.7826
-49.7358
2.46276e-11
-4.70788e-11
-8.43749e-11
-1.4236
68.7248
33.8551
-135.961
-0.0773997
-0.0619764
-0.086161
0.577782
28.7228
-68.3982
26.0761
3.74047
-0.506818
-0.520924
-0.53176
3.66066
0.105847
0.0537503
-0.046841
0.0290553
2.84804
22.5266
-11.2493
-1.16025
28.4723
13.8193
-10.0855
-17.1549
-8.1607e-11
1.83763e-10
1.58369e-11
2.10581e-10
2.57203e-10
-6.56628e-11
-2.06554e-11
-1.52547e-11
1.33763e-10
-3.40525e-11
1.68691e-10
-5.83534e-11
-1.50574e-10
-4.23229e-11
-3.67358e-10
1.34787e-10
-4.02955
-14.955
13.6655
0.00855597
-0.00452371
0.00264394
0.00176896
81.3748
64.5245
-53.4217
-91.4027
13.45
-27.3898
49.5952
-18.4021
1.59715e-10
5.50846e-12
2.441e-11
3.96122e-12
20.9465
134.694
-33.4149
-131.679
33.2896
-10.9697
21.491
2.02231e-10
-1.92644e-10
-5.3964e-12
-2.269e-11
-0.00748248
0.0668682
-0.0175377
166.143
-127.224
-139.029
85.246
-9.88085e-11
-3.45271e-12
6.17953e-11
-1.3274e-10
-9.06216
-7.37407
8.97738
7.34503
-6.58634e-11
4.3707e-11
-8.08905e-11
4.66708e-11
-56.0071
3.35577
141.563
-95.2456
-7.97361e-11
-1.1642e-10
2.86663e-11
1.73635e-11
-3.15785e-11
7.05084e-11
-10.788
1.34263
19.7973
1.79312e-10
-1.39297e-10
1.59349e-10
7.82361e-11
5.2856e-12
-1.01976e-10
-24.3727
-32.0822
14.9752
59.4067
-235.591
32.0753
47.0868
153.434
-2.02241e-10
4.64403e-11
-1.17334e-10
-0.237692
1.31999
-0.422469
4.70792e-11
1.17212e-10
-4.63565e-11
3.53443
25.5285
-15.3618
-13.8461
4.50906e-12
-1.09096e-10
6.52217e-11
-5.97737e-11
-28.4229
63.8543
21.0073
-56.1975
-7.59329e-11
4.30853e-11
-3.92892e-11
-4.36569e-11
-1.1449e-10
-1.1178e-10
2.75594e-11
-1.19795e-10
-2.39749e-10
1.95943e-10
-2.67819e-10
-98.3661
57.5498
-5.81963
29.9428
-257.773
102.609
146.389
1.15767e-10
9.52102e-11
1.80224e-11
-1.20236e-10
4.66234e-09
-9.9186e-10
5.44502e-11
-8.88282
-1.45517
1.1893
9.10885
-2.98854e-11
-1.49208e-10
5.7062e-11
1.33335e-11
-1.94063e-10
2.49384e-11
4.74844e-11
-3.36434e-11
6.77209e-12
-4.57636e-11
-1.99072e-11
1.49449e-11
-1.40397e-11
7.77693e-11
2.10485e-11
1.02691e-10
-5.30342e-10
8.62529e-11
3.71257e-11
-1.92228e-10
-12.299
14.1281
-11.4821
8.82992
-108.901
-2.54404
108.82
-4.95762e-11
-2.44232e-11
-9.21007e-12
-2.86912e-11
-2.29836e-09
-5.33915e-09
-6.16493e-12
2.35058e-08
6.03064e-11
-9.3856e-11
-1.91815e-12
-6.97426e-11
14.7166
-0.0458484
12.7917
-27.7274
-8.98176e-12
4.85562e-11
-3.07591e-11
2.58209e-11
8.92299e-12
-1.65653
13.8317
-4.96695
-2.80119
1.0622e-08
-3.08169e-09
-5.40816e-11
4.54059e-11
5.54777e-11
-2.51395e-11
1.46255e-10
1.10928e-10
-1.3007e-12
9.67717e-12
-8.68962e-11
-3.92179e-12
-1.34238e-10
5.12838e-11
3.80478e-11
1.82315e-11
2.69204
-0.368726
-0.157046
-0.948425
-21.9062
-0.214102
2.56013
19.2163
-2.28801
44.2351
-40.7032
5.54899e-08
-7.31649e-09
-0.000271817
0.000404581
0.00149803
101.511
-50.4744
-44.8384
45.6821
32.206
-80.5182
5.37697
13.3169
22.7994
-35.0121
-21.2009
6.62884
9.15621
5.27878
8.20845e-11
6.59338e-11
-1.07872e-10
1.1774e-10
1.65357e-09
-8.8403e-10
-1.04516e-09
5.43983e-09
377.111
-84.1851
96.3164
-401.657
4.16548e-10
-1.39487e-10
-8.84375e-11
-28.3292
-8.55131
31.2776
4.12275
2.6818e-10
-2.00053e-11
-8.87141e-11
1.05246e-11
-3.59877e-12
-3.58074e-11
-4.14325e-11
-48.1082
-39.694
86.7952
18.9359
-32.9059
27.8543
-13.9653
16.2128
6.97349
0.856626
-15.6129
1.55419e-10
3.7204e-09
9.67214e-10
-9.2037e-10
-5.36156e-11
-1.37438e-10
3.13488e-10
1.85769e-10
-172.577
46.8254
-45.218
158.221
-3.22536e-11
9.55556e-11
2.86998e-11
7.33914e-11
2.99537
-9.38869
11.3013
-5.23505
3.44644e-11
-8.91099e-11
-1.3207e-11
0.0947685
1.04811
-0.159004
-0.264044
0.48666
-0.251101
0.635982
19.1748
4.85976
0.888904
-24.6731
6.81766e-11
-6.68062e-11
6.31288e-11
-1.01665e-10
1.2182e-10
-1.01189e-10
-9.14384e-11
12.7492
-1.70473
22.0417
-35.0905
19.4505
-18.5396
12.6685
-37.2125
-27.7657
-3.08263
17.154
-13.606
1.08072
-30.6998
15.101
-20.1853
-1.94265
-10.288
37.618
-13.5328
-4.19252
-4.31442
21.5174
-3.98121
-1.04529
5.25253
30.3593
17.5055
-6.30231
-27.0268
2.67853
-20.2957
4.17313
4.57074
-6.50029e-05
0.000263711
4.24434e-05
0.0539468
0.0527635
-0.0247837
-0.00031305
-2.12175e-11
-3.22946e-11
-3.77897e-11
-15.8558
13.3267
-11.4747
13.7391
-26.2127
47.8917
-19.6064
-22.831
0.0228837
-0.0066558
-0.0070932
0.012506
-221.536
170.898
-101.99
51.4476
0.0318879
-0.00742268
-0.0125812
0.0228361
-1.00666e-11
-4.17391e-11
2.43674e-11
-6.72209e-11
6.65106e-07
2.90368e-06
-3.01377e-07
-8.84431e-08
-15.8088
19.4871
-20.7104
16.3335
-15.4407
13.5872
1.2508
2.46008e-07
2.62793e-07
-5.39923e-08
-1.55246e-07
6.20404
31.111
-32.433
-4.54832
-13.4259
10.3241
9.87438
-5.31004
-3.8289e-11
1.22729e-10
-1.54254e-10
-1.56208e-11
-6.31293e-11
8.11076e-11
2.4245e-10
-2.33932e-11
-0.0236251
-0.0110911
-0.0438349
0.15001
-107.803
5.45421
38.4091
22.5721
-4.91793e-11
-2.42445e-11
-9.80819e-11
-1.61379e-11
-83.1919
-65.4374
21.1987
-1.26479e-10
-7.72884e-12
-1.48683e-10
2.00892e-10
-4.74078e-11
1.55106e-10
-1.53158e-13
1.13562e-10
4.26227e-11
4.38118e-11
9.84339e-11
-1.98657e-11
10.256
16.053
-30.8668
10.1751
0.198353
0.0974829
-0.0191336
-0.04756
-4.77996e-11
-2.03325e-10
-1.96632e-10
6.72657e-11
-0.00172595
-0.0005373
0.00803402
0.00120351
29.2125
-35.1581
9.30859
26.1953
129.419
-9.26109
-164.353
-1.05871
-9.57622
1.77441
9.04374
-34.8717
45.8578
-35.6507
39.4169
0.729445
7.8106
0.928545
-9.45278
2.45631e-11
-2.23418e-11
-2.66299e-11
-1.54072e-11
1.69131e-10
7.26016e-11
-4.22375e-11
-1.85811e-10
5.97402
0.658302
-0.276576
-6.34033
-0.000635698
-0.00145805
0.00789122
7.23983e-05
13.9957
-6.33574
11.972
-20.0247
1.9484e-10
-1.63493e-11
-7.45884e-11
-7.85786e-11
3.94641e-11
-5.53066e-11
6.9509e-10
-9.3821e-11
0.955298
2.71707
3.26846
-2.93565
4.3923e-06
1.53362e-06
-2.54802e-06
-1.17676e-06
6.02874e-06
-1.39567e-06
1.97825e-06
-6.12174e-07
5.12371e-11
6.46561e-11
2.24391e-11
2.21997e-11
-1.22782e-12
8.22579e-11
8.26829e-11
1.22751e-05
-3.33007e-06
-5.654e-07
3.02869e-06
-7.93111
-37.504
40.8032
-1.20865e-08
-3.73622e-09
2.69696e-08
3.80398e-08
-6.54181
-7.14168
39.6635
-12.7769
-3.52148e-05
8.95364e-05
2.32083e-05
-5.15234e-06
-2.40526e-06
-6.37696e-06
1.95955e-06
-10.3436
-9.81462
19.8499
-2.84833e-11
5.58757e-12
5.10275e-11
-1.23282e-10
-1.9838e-11
1.03361e-10
1.20399e-10
7.26306e-11
5.05596e-12
-1.60128e-10
-0.790056
0.713187
2.1235
-0.687867
0.00343032
0.0103865
-0.0167227
0.0614538
-0.616788
1.10099
-0.2476
-2.13478e-11
4.78295e-11
-1.08648e-10
-7.60155e-10
3.21264e-10
-1.08833e-09
6.31732e-09
-1.05627
9.62481
-3.84951
-0.323601
1.73897
-0.824976
0.172974
-25.4694
13.5654
11.6668
306.855
-181.106
-267.637
147.626
-144.294
-67.675
149.711
-1.31457
-2.72961
29.3465
-24.8167
0.85362
60.9639
-23.1365
-12.6269
4.54813e-12
1.43988e-10
-4.16382e-11
-9.56007e-11
1.35035e-10
-6.20286e-11
-16.3973
4.76608
-3.0652
29.7122
42.5299
-32.1984
-49.7399
36.9166
31.2708
5.89703
-6.17857
-27.7344
-2.78179
1.97902
-5.90711
6.75997
-3.83583
-2.71558
3.80051
2.49631e-07
-2.78656e-07
6.72522e-08
1.01094e-06
-6.94652e-11
-5.06494e-12
-4.74191e-11
2.98354e-12
3.413
-14.1845
28.1183
-3.50174
-3.23344
-12.3416
28.1794
8.12003
-4.99236
27.7986
-25.2989
-25.7749
10.2435
10.9565
0.103016
-35.6963
-25.2305
60.6787
1.9134e-10
2.76477e-11
5.31816e-11
-6.38678e-11
-1.40879e-11
4.38867e-11
3.6122e-11
-3.8081e-11
-32.4205
53.6686
-6.75032
-79.5059
56.8242
-24.3461
32.4565
-0.482695
18.1867
-25.5032
-6.55309e-11
8.89373e-11
3.86696e-11
6.59181e-11
4.97409e-11
1.01751e-11
-53.6771
8.40699
40.4239
-3.11331
-11.6719
3.78752
20.9753
-13.1011
-6.03848e-12
-6.58145e-11
1.50685e-12
2.51047e-11
-6.55973e-10
4.07173e-09
-5.82531e-10
4.58524e-10
2.32086
1.59255
-1.16434
-0.87927
1.14131e-11
-8.75102e-11
-8.22526e-11
8.76421e-12
-9.33989
4.44678
2.794
2.05381
2.25832e-11
-2.54514e-11
-1.5008e-11
-1.04273e-11
9.92497e-11
-2.68144e-11
3.47937e-11
17.0562
-0.942124
-23.1547
6.50524
4.62868
-3.46289
-0.697602
-6.8708e-11
-2.12514e-11
1.26707e-11
180.146
-120.109
215.437
-281.783
3.64517e-05
2.59214e-06
-3.47743e-06
-4.87257e-06
-18.3319
31.318
-137.786
90.5328
-136.942
184.773
-59.6856
2.07139
-2.06911
44.157
-1.39009
2.061
2.50566
-0.99253
8.77123e-11
-3.28596e-11
4.30191e-11
-1.43301e-10
4.59247e-11
-1.09017e-10
-8.36706e-11
7.35117e-11
1.80929e-11
-4.03418e-11
2.63536e-11
-1.53558e-07
4.65984e-07
3.35186e-07
-8.88314e-08
6.05349e-11
-8.4859e-11
-1.02555e-10
2.68834e-11
6.0332e-12
-2.59586e-11
1.07305e-11
-23.4262
30.7734
16.9882
-24.0063
7.82019e-10
-7.50827e-11
1.43106e-11
-0.48199
1.78555
0.222678
0.351161
-2.08536e-11
2.76277e-11
-4.85056e-11
0.000181356
-2.35037e-05
-3.07338e-05
4.12215e-06
4.99159
-9.17332
0.347256
-6.35271e-07
8.83985e-07
3.18773e-06
-4.9005e-07
0.0370199
-0.00718153
0.0135668
-0.0185092
-1.62324e-11
-8.99226e-11
-1.34224e-10
2.61793e-11
-7.22974e-11
-7.25477e-11
1.05837e-10
-7.10884e-11
2.84178e-12
5.5518e-11
-9.68977e-12
6.37913e-11
2.31721e-12
-5.01317e-11
1.08549e-10
-1.75383e-10
5.07509e-15
1.83981e-11
-2.04084e-11
-3.97731e-11
2.77056e-11
-2.3613e-10
-1.09238e-10
5.63511e-11
-6.85149e-11
-2.89679e-11
2.78116e-10
0.00015399
2.32264e-06
0.000201841
0.502886
-0.0237023
-0.150432
-0.0464273
-3.59972e-11
8.94309e-11
6.13178e-11
2.36822e-11
7.19384e-11
1.44847e-11
-1.00153e-10
-9.97627e-11
5.23483e-11
2.57529e-12
-1.21719e-11
-3.92222e-11
-1.04447e-10
4.80307e-11
-2.52052e-10
5.06999e-10
-2.57169e-10
9.17865e-10
-5.52597e-11
-7.77133e-11
1.21958e-10
1.84619
-1.29086
3.52916
-4.0262
-0.304818
3.7468
-12.28
21.9643
-5.52034
12.8975
6.18508
-6.19398
-2.84616e-11
5.86168e-11
-3.62855e-12
2.1373e-11
36.9655
-30.9054
32.3698
-19.9268
1.8925e-10
4.88142e-10
2.86357e-10
-2.18525e-10
-108.575
-26.6291
98.2699
36.41
-5.12055
3.24414
-47.1319
48.3949
-4.808e-11
1.53353e-11
-5.63547e-11
6.55555e-11
76.566
-70.0897
46.6607
-6.66509
-2.80646
11.9896
8.67789
-36.9138
-1.98906
31.0613
2.70959e-11
2.36139e-11
5.70624e-12
2.31338e-11
6.12794e-11
-5.47076e-11
-9.12056e-11
-1.02984e-10
-3.86612e-11
4.92332e-11
-1.28465e-10
2.53222e-10
127.656
-76.7003
-31.4206
128.74
-3.0168e-11
-2.97503e-11
-6.46815e-11
-9.42161e-11
-3.10674e-12
5.7748e-11
-11.8355
6.92365
11.939
-6.77388
-1.81584
-27.4028
19.3512
-5.39804
13.8606
1.50856e-11
6.13729e-10
3.84131e-11
-1.93998e-10
-1.5995e-10
-0.715046
1.94948
-0.38016
0.177535
-8.43648e-11
-2.3719e-11
-1.35894e-11
-8.58925e-11
-18.0399
-51.1796
1.56269e-10
2.03837e-11
1.39345e-10
-1.13479e-11
-1.85752e-08
-2.14603e-08
4.96104e-08
1.30113e-07
-5.47179e-09
3.87758e-08
-4.41285e-09
-5.63486e-09
-8.64631e-12
-5.91052e-13
-7.60948e-11
-3.15003e-11
-1.56623e-10
2.63596e-11
-2.75069e-12
-1.99718e-12
5.13258e-12
-1.49987e-10
7.7537e-11
-4.22861e-11
1.42111e-10
-8.49693e-12
-2.5432e-11
0.0645453
-0.00972794
0.0518379
-0.0274451
5.79377e-10
-1.39342e-10
-1.38602e-11
-2.99495e-08
6.21298e-07
-1.17533e-07
-2.0828e-08
-1.13598e-10
-2.92483e-11
9.24017e-11
3.84861e-11
1.24864e-10
5.68851e-11
-1.66392e-10
8.35295e-09
-1.26991e-09
-5.8484e-10
-2.02001e-09
4.0897e-11
-1.75364e-11
3.61083e-11
1.19687e-10
-2.77762e-07
2.07756e-07
7.99043e-07
1.51731e-08
8.51678
-3.22347
-4.0058
-3.00807
-3.05191
-4.19288
10.2213
3.15238e-09
2.34929e-09
-1.24206e-09
6.62009e-10
0.0221065
-0.0212134
0.0108781
0.0556343
0.555151
339.855
36.9006
41.525
-421.298
6.38344e-08
-8.91589e-09
-1.79951e-08
-1.05769e-10
-1.7541e-10
-4.60964e-11
2.76228e-11
-5.87911e-11
1.00931e-10
1.24463e-10
9.21828e-11
-2.39033e-08
-1.04705
-6.97844
23.6825
2.79596e-11
-9.00124e-11
-1.53143e-10
3.56492e-11
-8.72251
-53.9811
36.2549
26.4845
8.45181e-11
1.33016e-10
3.56315e-11
-3.17347e-11
26.71
-20.0542
2.23161
8.39391
2.78155e-11
-4.90065e-11
-4.60002e-12
-2.10998e-12
8.9836e-11
1.61146e-10
-4.99193e-11
-8.29886e-11
-8.63104e-12
3.42384e-11
2.98316e-11
0.00115839
-0.00046086
-8.89427e-05
-1.18713e-10
-7.58188e-11
-8.82719e-11
8.8977e-11
1.60925e-10
-9.0963e-11
-2.49804e-10
4.26945e-11
-1.93486e-11
9.62543e-11
-1.16462e-10
6.23405e-11
-2.30783e-12
1.57288e-06
1.63059e-07
-4.89181e-06
1.81804e-05
0.0128044
-0.00280313
-0.000334867
0.00103284
-49.6501
-30.8025
23.6986
84.6944
-32.4551
44.6256
-25.4468
12.4394
-1.48287e-11
-3.16925e-11
-3.32595e-13
-1.95539e-11
-3.10354e-12
-1.2374e-10
-8.93581e-12
-4.23756e-11
2.84909e-12
2.19797e-11
1.30529e-10
6.61336e-11
1.13939e-10
-4.99637e-11
1.39229e-11
3.67511e-11
-3.72745e-11
-3.56046e-11
-1.01127e-10
3.97711e-11
1.22758e-11
1.27441e-10
-1.85692e-11
-50.7016
-27.3374
-13.079
39.333
19.9339
-19.9431
14.6364
-14.3059
24.6929
45.7093
-113.445
1.04869e-11
3.28759e-11
1.01943e-09
-3.22198e-10
4.87544e-10
0.000148241
0.000179276
-0.000548108
0.00156471
-0.000206655
0.000307301
0.000845948
19.3177
-6.90705
-13.6681
2.29604e-08
2.10188e-08
-6.40559e-09
-4.17055e-09
13.1627
13.1403
3.11398
2.50119e-10
-2.14159e-10
-1.07994e-10
1.83351e-10
-2.75969e-10
2.54018e-11
-2.41292e-10
1.65554e-10
-0.477123
4.5156
-1.10152
34.9696
121.468
-36.9668
-126.658
9.63635e-11
3.03827e-11
8.85377e-12
1.80178e-11
-3.09425e-11
-2.61533e-11
-8.51329e-11
2.16666e-10
-7.31354e-11
-1.94839e-11
-1.58815e-10
6.51468e-11
3.53509e-10
-14.2171
-8.59442
-15.8522
40.8199
6.43526e-11
4.85415e-11
5.81767e-11
-1.102e-11
-7.38725e-11
8.44548e-11
-1.10084e-10
-7.29858e-11
41.9621
85.4146
-0.000584464
0.00061139
-8.43252e-05
0.00131548
-31.9173
-83.9334
19.1187
-2.90144e-11
-1.63848e-11
-3.10468e-11
-1.09896e-10
52.4284
-38.6336
-15.1048
-3.7315
9.01763
-4.47896
-8.40741e-11
1.50518e-10
8.94267e-12
-1.09849e-10
-34.2258
28.0118
2.45273
3.00922
-4.66249e-12
-6.95529e-11
2.16177e-11
6.90507e-12
30.1296
-52.5949
-8.36835
18.2398
3.33563e-12
-3.15843e-11
1.4335e-10
-9.39832
23.6248
-6.50834
0.814169
0.132359
-0.339322
-0.0513173
4.03596
0.171353
1.26836e-11
1.20951e-11
-1.13262e-11
-1.99047e-11
3.56922e-11
-7.42497e-11
1.59227e-10
-5.72053e-11
-8.94225e-11
-5.54291e-11
2.59624e-11
-7.52573e-11
-6.14559e-11
2.10892e-12
1.37065e-10
6.13124e-12
-0.000114705
-0.0001953
-0.000432711
0.00282799
7.47179e-06
-2.85865e-07
-8.77137e-07
-0.0169576
0.0931933
-0.0228853
0.00943788
1.86698e-08
1.97706e-07
-1.19318e-07
-3.51632e-11
5.10632e-11
1.25814e-11
-7.96703e-11
-69.8201
61.7413
16.0192
4.01747e-11
2.75134e-11
1.18902e-11
3.82959e-11
-1.7253
-50.4326
13.9349
31.5835
-14.6995
26.1035
5.08038
-4.84476
-6.541
-13.8501
2.38887
10.3808
1.5741
4.67867
-2.41158
-2.25066
-6.17788e-11
2.19966e-10
-5.4725e-11
-1.86483e-10
-30.3498
53.9371
-3.1575
-19.1096
-27.6825
28.5736
-32.4679
34.2129
3.52252
-4.51093
-9.85607
10.945
-0.392717
63.8652
-17.0998
-28.7697
0.168425
-0.0852316
0.509057
-0.137937
26.0029
-52.4063
-46.5446
56.9971
-3.13806e-10
-6.88055e-11
-9.96451e-11
0.152109
-0.321535
1.03239
-0.111701
-36.2919
11.4681
13.6253
-9.25658e-05
0.000188361
1.29532e-10
5.57763e-11
1.73837e-10
7.31641e-11
-114.25
-34.6386
-1.84627e-06
6.01186e-05
-1.58944e-05
-2.33611e-06
61.9364
-18.7053
19.618
-49.5529
64.8743
8.35487
-29.6865
95.0494
-72.5597
-26.2416
1.01231
-3.18666
9.82446
-23.8953
15.0787
3.37738
-667.014
-190.934
1264.3
-25.9934
15.8804
-1.18963
0.208122
-0.279744
3.95379
-1.33721
1.55155e-11
3.31336e-11
-1.11102e-10
4.39965e-05
-5.35007e-05
-1.88806e-05
0.000135895
-60.0749
-117.605
-6.63834e-12
-1.06723e-10
1.58534e-11
0.0028955
-0.00117946
0.0160275
-0.00649197
9.79474e-11
-1.07452e-10
5.00716e-11
1.58318e-11
-0.371211
8.9022
37.7957
-58.1145
-8.63464e-11
-9.3845e-11
-2.45973e-11
3.25653e-11
18.6497
41.9441
-15.0876
-46.1026
-1.21647e-10
5.36016e-11
1.76201e-10
-1.96873e-11
2.01589e-10
8.90538e-11
-1.12297e-11
-5.18265e-11
0.70233
0.184855
-0.298357
-1.41635e-10
1.08025e-11
-6.13948e-12
1.66159e-10
-8.01602e-11
-1.25035e-10
5.3999e-11
-2.0016
-49.2884
-0.723417
52.6774
201.254
-123.283
160.961
35.9738
-155.176
2.81991
4.81228
5.93292e-11
1.28597e-11
-5.61386e-11
-7.05862e-11
-8.64728e-11
-7.91517e-11
1.44015e-10
-48.4185
34.4946
-89.6097
105.788
-4.19194
10.5199
10.7455
0.298256
-3.71053e-11
1.13825e-11
-7.59697e-11
-3.68274e-07
5.74591e-07
-2.85529e-07
1.04904e-06
13.5527
30.2005
-36.5527
2.17766
9.52368e-11
-1.1505e-10
7.60544e-11
-1.92111e-10
-1.09026e-10
9.60682e-11
-1.37522e-10
1.26185e-10
6.3016e-11
7.76043e-11
-3.6732e-11
1.03263e-10
-80.8422
-18.0403
20.4635
76.8671
-6.73113e-11
1.68192e-10
-4.01633e-11
-0.279149
0.907595
-0.184673
0.920575
20.4925
-59.0406
22.5949
-22.4874
-11.9955
-5.55722
40.4383
1.66019e-10
-2.56113e-10
5.02058e-11
-0.239196
1.06652
-0.0810648
-0.272308
20.9241
-49.5759
-58.3591
100.303
-3.39802e-11
-9.34946e-11
-2.28927e-11
-2.8448e-12
-20.6227
-18.1436
17.0224
24.5106
-20.5043
19.0827
1.62004
-1.21542e-10
6.85873e-11
5.75796e-11
9.56866e-11
5.13248e-11
-1.55781e-11
-1.62438e-10
7.39536e-11
-5.13318e-12
6.15084e-11
3.4436e-11
-7.40671e-11
-3.54837e-12
1.57048e-10
-1.64339e-10
4.11853e-12
2.38552e-10
-1.12693e-10
43.6036
8.6515
-14.199
-28.3414
-0.000746452
-0.00185675
-0.00119284
0.00938751
-2.15815e-11
4.98458e-11
-0.000419399
0.0109474
-0.0017042
24.2991
18.1989
2.94113
-50.1002
-1.0111e-10
1.16837e-10
5.91768e-11
-1.59266e-10
4.8721e-11
6.88621e-12
-1.3684e-12
-8.47921e-11
-2.41183e-12
-9.25939e-11
-5.10596e-11
-3.7933e-11
4.96432e-11
9.16828e-11
52.2414
-7.5934
-19.7383
-15.4442
-1.43865e-10
6.22759e-11
-1.36156e-10
-4.33181e-12
-3.75078e-11
-4.12524e-12
-1.02575e-10
-3.42461e-11
5.36023e-11
-1.7488e-10
-9.24088e-11
7.63442e-11
-9.91293e-12
1.55409e-12
1.17039e-10
2.34953e-11
-1.00427e-10
-4.77015e-11
3.2985e-11
4.50009e-11
-3.14366e-11
1.22993e-10
4.03275e-11
-7.52112
7.30805
56.3939
-51.5397
75.6658
-165.77
-133.528
209.399
-8.31951e-10
1.00506e-09
-2.35899e-09
1.02984e-08
-2.28408e-11
2.16035e-10
1.52666e-10
1.86588e-11
1.11279e-10
-39.6767
-20.5007
45.3062
14.1943
-1.1244e-11
1.90221e-10
-1.00035e-10
-4.03367e-11
3.62705
-0.443404
-0.284674
-1.12063
12.9158
13.2093
-71.8985
40.2355
-1.01252e-11
-1.31212e-11
5.91079e-11
-48.2434
-10.0554
55.1643
0.614912
-0.822887
1.7812
3.42017
-4.69232e-11
-1.29136e-10
-2.38758e-11
-3.65684e-11
-2.50707e-11
-4.70541e-12
-1.63382e-11
7.94001e-11
-9.96444e-11
-11.7254
41.6088
-5.67655
-25.3286
0.0261033
-0.0140524
0.214175
-0.0574823
0.000106705
-9.57681e-06
5.79825e-05
-4.33284e-05
22.6991
-2.77747
-2.42437
-17.2792
-36.5414
3.92519
23.2409
9.32341
-1.429e-11
-1.6849e-11
-6.10183e-11
0.0562036
-0.103037
0.0534469
0.219502
1.81072e-10
-5.42419e-11
-8.05901e-11
-2.75841e-11
-5.96598e-11
-6.14525e-11
1.37988e-10
4.66655e-11
-1.84819e-12
2.01698e-11
-1.31685e-10
5.27242
16.1986
-17.3459
-3.9531
-3.19872
4.54327
-9.54514e-05
7.76142e-05
0.000887173
-0.000230206
3.40446e-11
3.59871e-11
4.06295e-11
0.00215515
-0.0952409
-0.11328
0.446817
-7.06374
0.00140796
0.00821307
0.00472479
-0.00242713
1.61213e-10
-5.04212e-11
5.44708e-11
1.58928e-11
-2.47931
-3.8141
41.9554
55.9103
-69.6505
-36.9807
-26.0083
18.6885
1.9454
5.89202
18.102
-13.0723
-23.7804
112.839
7.8685
-126.291
27.1256
-1.79638
-27.0148
8.06243
-8.10595
-1.03262
1.18644
3.29601
-10.6278
8.28317
-0.8967
-21.2818
28.9476
-29.739
0.000436826
0.00405161
-0.00113168
-42.2379
19.3168
19.8707
4.63224e-06
-5.59394e-07
-1.0332e-07
7.30536e-08
-32.7313
50.3572
-51.4303
-3.87961e-11
1.8942e-11
-5.26305e-11
-102.542
-45.5527
147.109
-5.19299e-11
-1.52273e-11
-9.70515e-11
-45.2306
29.2358
35.3471
-19.8139
-19.0853
-1.66908
1.92938
-1.03727e-09
-1.32544e-09
2.09207e-09
6.89822e-09
-7.36584e-11
-6.02493e-12
-5.46186e-11
-2.75023e-10
5.30063
75.6202
-91.9868
3.0563e-11
-5.96252e-12
3.2378e-11
-1.06216e-10
181.591
40.3806
-396.124
129.383
297.137
-34.3372
13.2779
15.2928
-1.84093
-15.1564
2.39519
3.18382
-0.442515
-5.08581
-44.0033
-0.717186
6.58258
38.5583
-7.43734
-1.84471
13.3125
-3.9176
-7.26791e-06
0.000101935
-2.09319e-05
1.53861e-05
1.05907e-11
6.00632e-11
-1.28873e-11
3.23928e-11
8.9279
-8.22036
-19.7228
11.0433
-3.69202e-12
-2.82577e-12
5.57957e-11
-4.6571
11.0637
0.189654
-6.47382
4.25332e-11
-1.19408e-10
-1.11022e-10
-2.53674e-11
-1.05672e-10
6.48069e-11
-1.21189e-10
8.43145e-11
0.72545
-0.0914609
-0.0441154
-0.0969625
5.0814
-161.846
134.52
-2.54314e-06
6.53333e-06
2.65092e-06
0.0990518
-0.0121929
-0.0108711
-0.0113263
9.72912
17.6998
3.25683e-07
1.54305e-07
-8.54446e-08
-2.10245e-08
-6.6253e-11
1.42489e-11
3.77643e-11
68.2119
174.487
-153.935
-106.818
18.3497
263.281
-201.448
-148.098
-1.07808e-11
-1.40927e-10
-2.87251e-11
6.51321e-11
3.23737e-11
-1.21893e-11
7.95881e-11
2.0374e-11
-6.95789
-14.408
-2.38811
22.4739
6.75261
-4.81358
2.49778
143.456
-86.4929
8.12767e-11
-2.48393e-10
5.5477e-11
-90.1648
-7.01484
32.1782
6.41344e-09
2.09923e-09
-9.26895e-10
-6.68596e-10
1.98437e-10
-1.28656e-10
8.3832e-11
6.998e-11
-4.10514
-37.418
-33.9127
76.1351
8.72115e-11
-5.2017e-11
-8.49097e-11
-0.890887
0.000648003
4.00856
-41.1893
-117.773
161.866
3.95395e-11
1.11572e-10
9.28036e-11
-1.58056e-10
7.67219e-11
-50.3879
24.937
7.11347
19.8794
0.241784
0.685365
-0.338358
6.19202
22.0237
-46.3525
25.0223
-14.3958
-31.827
204.926
-155.845
8.10716e-11
-1.30688e-10
-4.23288e-10
1.28602e-10
-1.51598e-10
3.39282e-11
5.36359e-11
-3.16378e-11
-2.49571e-11
-9.05974e-11
2.62274e-11
-2.52518e-11
7.54514
8.02908
-15.1621
-0.838318
2.46865e-10
4.01099e-11
-1.14523e-10
1.88635e-11
-1.67891e-10
1.86413e-11
1.61546e-11
-8.93229e-11
5.59398e-11
-0.0126778
0.0693251
-0.00128191
-0.0104711
0.223399
-0.140603
0.260137
-0.0615778
-32.2551
9.97822
-4.15503e-12
-9.40213e-11
-3.38075e-11
-3.23756e-07
1.08249e-06
-1.32279e-07
3.39501e-08
1.92193e-11
4.23706e-11
11.0761
-17.9887
-1.05813
117.135
-49.0279
-71.4916
1.56019e-10
2.41868e-12
-2.85563e-11
-7.73868e-13
-41.1466
38.0732
-42.0886
22.0019
-131.07
109.773
-67.4071
12.29
1.7972e-11
5.88867e-11
-1.41665e-11
1.042e-10
-1.99482e-10
2.36422e-09
-3.44184e-10
-139.447
157.64
60.1989
-79.7872
-49.7566
-50.9321
64.8682
35.2524
24.1946
-6.39236
-7.64703
-2.05416
37.2374
-207.698
198.865
-39.6132
1.61633e-11
-1.77199e-10
3.00879e-11
-309.396
294.403
20.7854
-13.8815
29.9393
-21.6576
-0.778083
-7.86459
383.481
-381.454
-253.536
236.109
2.93207e-10
1.78071e-10
-4.35273e-11
2.08456e-10
2.38612e-11
4.77728e-11
7.50722e-11
4.09948e-12
-5.10858e-11
-1.48102e-11
2.14328e-12
-1.99601e-11
-1.04799e-10
-1.53643e-10
1.08517e-10
-1.03823e-10
-2.0327e-11
-2.35726e-11
-5.05506e-11
209.603
-199.732
0.665964
-9.52213
1.00204e-10
-5.11374e-11
2.27392e-05
0.004938
-0.000875333
1.36735e-10
-9.54514e-11
6.20007e-11
1.99626e-10
0.00445054
-0.00334151
0.0934236
-0.0209324
-1.91906e-11
1.14086e-10
-4.4626e-11
7.20183e-11
-5.68187
-5.90045e-06
2.05025e-05
5.02784e-06
-8.77084e-07
8.82944
-44.9041
40.3051
-17.5883
-128.332
130.711
17.3681
-1.26052e-10
5.02778e-11
1.40598e-10
17.5114
2.28537
-21.1396
1.20982e-10
1.76966e-10
-3.45552e-11
1.36764e-10
74.0337
-87.6868
-350.789
341.927
-156.41
140.503
0.862834
-8.26993
10.6761
-2.30478
-0.524273
3.1415
-0.750255
-0.199124
-37.6383
-116.066
-2.34911e-12
-1.56739e-10
-8.40109e-11
1.18918e-11
-1.18695e-11
-5.7064e-13
-1.35669e-10
3.98937e-11
6.86998
0.072184
-2.98705
-0.825998
-134.94
-28.5749
101.593
58.8446
-2.9392e-11
7.20039e-11
1.06264e-11
-1.47296e-10
1.29082e-10
-4.27292e-11
-0.000250517
-0.000104003
0.000554873
0.000445377
2.58941e-12
-5.14708e-11
-188.852
-7.61658
198.65
4.85468e-11
5.42755e-11
4.29072e-12
-1.85646e-13
-7.98151e-11
-3.31705e-11
-3.64602e-11
7.52797e-11
1.2873e-10
-4.4059e-11
-5.42022e-11
-1.48001e-10
-9.26188e-13
1.00567e-10
-5.53624e-11
-16.8606
-35.7767
50.5595
-2.13343e-10
7.92018e-11
3.64757e-10
1.08282e-10
1.86754e-11
1.04216e-10
-8.87132e-12
1.10698e-10
-113.653
-262.304
177.291
192.305
255.724
-104.066
-52.4342
-96.9641
-0.623458
-11.4542
-2.0726
20.8092
-5.8137e-09
5.10173e-08
-1.56618e-08
-5.19345e-09
8.45077e-11
2.13565e-11
-2.66311e-12
1.0862e-10
4.8459e-11
-6.28295e-12
1.88707e-12
-1.35773
0.69133
2.4684
-2.33963e-11
3.35093e-11
-1.19775e-10
-1.76747e-10
1.42944e-11
-1.48588e-10
1.53126e-11
-2.47134e-10
-8.28602e-11
1.29043e-09
3.98995e-10
3.24322e-11
9.36782e-11
3.45791e-11
-5.15911e-11
-5.35623e-11
-8.30466e-11
-5.83265e-11
-1.13301e-10
-6.09998
-26.4288
57.4971
-27.086
-80.8233
17.175
80.4177
-20.0654
2.66102e-11
1.09109e-11
5.89234e-12
-1.4787e-11
-2.37843e-08
1.62923e-07
-2.93745e-08
17.5101
-13.3068
-21.5187
15.954
-8.23997
35.2329
-6.12834
31.198
9.54368
-17.8905
-23.7842
0.108183
-0.00999873
-0.0222226
7.72504e-11
-1.43739e-11
7.068e-11
0.0024505
-0.00192913
-0.00418679
0.0116436
3.9541
-2.20752
7.48489
-3.77444
-9.61308
-12.834
39.7767
-14.4648
16.2587
19.3528
-4.7114
-24.6559
24.7558
-14.8494
1.14303e-10
2.41766e-10
3.67725e-11
6.06414e-11
-345.419
146.47
145.363
43.1981
1.08837e-10
7.17737e-11
2.06888e-10
1.07721e-11
-1.06265e-10
-8.02643e-11
-2.25677e-11
-1.89488e-11
-75.5541
172.558
-101.035
53.7776
-46.5865
-68.5506
58.4894
5.03441
-1.02425
-2.392
-1.50711
4.24991
-13.4113
-1.39018
10.4335
-1.50014e-11
-5.43278e-13
-4.25097e-11
-2.83234e-11
-4.59144e-09
-9.62908e-09
3.83674e-09
3.57269e-08
2.68726e-11
1.51203e-10
-8.85482e-11
1.71535e-10
1.6561e-10
5.3201e-12
3.96674e-11
1.96937e-12
21.9476
-81.7215
93.5354
-38.2133
-4.45383
-2.74227
7.30935
-52.5373
-20.2007
-66.3427
80.4296
-170.457
-40.4258
129.904
-21.1062
12.8321
-10.4714
22.9722
-0.925187
-10.1586
-1.92294
12.3464
16.6946
-125.124
53.7326
1.23138e-10
-1.34465e-10
-1.12713e-10
-6.44409e-11
104.635
4.17818
-170.366
54.6578
9.67041
5.76787
-3.53012
0.389886
-0.29936
-3.77797
-3.2284
-26.7813
-8.01598
19.9102
-5.52562
1.17577
-6.42631e-11
2.95031e-11
1.24274
-1.57537
7.36673
8.20837e-12
1.68614e-11
-6.45591e-11
2.29323e-05
-8.34841e-06
2.32939e-05
0.4357
0.120629
13.8895
-5.87007e-11
-4.36726e-11
-2.10084e-13
27.1292
17.1358
4.74562e-12
-1.00247e-10
1.33164e-11
-4.88249e-11
-2.01197e-10
1.27915e-10
2.49982e-10
-4.71764e-12
-0.598785
1.46692
1.28745
1.24672e-10
6.88849e-11
3.53378e-11
-0.170044
0.533362
-0.412484
1.08304
-1.70075e-10
-8.33933e-11
1.12729e-10
-0.0165213
-0.0022952
0.0474017
1.62899e-09
1.95089e-10
-1.68478e-10
-4.43443e-10
1.43743
-0.530989
0.127352
0.341546
-50.3636
13.6793
19.2832
20.7401
24.5009
-35.2287
4.45613
-2.96504e-10
1.80905e-10
-7.56303e-11
-2.19396e-10
52.9466
-19.2981
-20.7015
-1.41363
32.2387
-11.7987
-64.9233
37.6682
-1.29478e-05
0.000360532
-7.17609e-05
-1.53626e-05
7.01723
-1.01977
-2.72599
-0.257631
-7.44307e-11
7.50075e-11
7.08624e-11
-45.2307
13.9657
28.1522
7.19627
-1.57153
-1.83925
0.0110318
-0.00320305
-0.000176168
-0.00117883
0.112153
-0.183403
0.60511
-0.0365648
-12.4764
49.1538
-15.1549
-13.3438
20.7178
-32.6305
-10.0769
20.8639
8.42737e-12
-1.68614e-11
-5.3689e-12
-0.715848
1.97435
-5.44193e-11
3.11094e-10
1.0426e-10
-7.90827e-11
-3.16031e-11
-6.77944e-11
-1.63991e-11
7.15644e-11
-2.62998e-11
-1.18472e-11
-2.34175e-11
-5.18415e-12
0.150647
-2.24622
0.0602169
5.21626
47.5547
-29.4994
-60.3804
-2.30843e-11
-4.37886e-14
-4.32652e-11
-12.0173
-4.65032
18.0932
8.26907
19.9249
12.1417
6.98741
-7.837
-4.43227
202.203
-27.9611
27.0323
-204.393
1.36959e-12
1.59686e-11
6.44016e-11
7.83712e-11
0.153445
0.489042
-0.231831
4.29448e-05
-1.56229e-05
5.74061e-05
-2.36473e-05
9.35119e-11
1.23047e-10
7.20482e-11
-9.67884e-11
2.08144e-11
3.06659e-11
-1.93259e-10
-12.3744
1.69539
20.2767
-9.76062
-2.97991
-3.40173
0.580545
-0.126025
-3.86352
8.3158
-1.16427
-19.7822
30.4201
-2.89386e-12
-3.17048e-12
-9.13514e-11
1.38971e-10
-5.2973e-09
2.44596e-08
2.91191e-08
-12.8656
-12.0538
3.47978
34.9188
-0.000164135
-0.000126354
0.000372676
0.000546762
-1.84829
5.04773
-1.53167
27.6894
-28.6899
1.38588
11.042
-1.21648
2.53696
7.637e-13
3.95916e-11
4.76243e-11
4.6562e-11
8.69198e-11
2.37233e-11
-8.48734e-11
-23.9061
8.77141
25.9932
-10.6027
6.78497
-15.9572
21.5695
-12.1702
0.00179861
-0.0110638
0.0313245
0.000900805
-0.87765
-2.32174e-11
-9.45604e-11
-3.65099e-08
2.19548e-07
-5.72255e-08
4.93732e-08
-1.52748e-10
-5.93004e-11
2.50889e-11
1.82733e-10
-0.000111659
-5.77014e-05
0.00039432
0.00026067
13.3342
54.3571
-22.688
-32.9305
-13.8072
0.0584952
17.5874
7.92624
-3.45352
-0.198049
-2.44134
10.3409
149.679
-11.5345
-140.006
4.56559e-13
8.47236e-12
-1.24607e-11
5.12435e-11
-3.4481
5.68007
-16.8214
14.93
1.3051e-11
-5.4329e-11
6.22977e-11
-7.15299
2.03696
-2.78783
0.0853718
0.00236951
-0.0067776
-0.0207393
-17.7056
-2.17053
13.8053
6.79744
2.37881e-11
4.15321e-13