/*--------------------------------*- C++ -*----------------------------------*\
| =========                 |                                                 |
| \\      /  F ield         | OpenFOAM: The Open Source CFD Toolbox           |
|  \\    /   O peration     | Version:  2312                                  |
|   \\  /    A nd           | Website:  www.openfoam.com                      |
|    \\/     M anipulation  |                                                 |
\*---------------------------------------------------------------------------*/
FoamFile
{
    version     2.0;
    format      ascii;
    arch        "LSB;label=32;scalar=64";
    class       volScalarField;
    location    "0.2";
    object      T;
}
// * * * * * * * * * * * * * * * * * * * * * * * * * * * * * * * * * * * * * //

dimensions      [0 0 0 1 0 0 0];

internalField   nonuniform List<scalar> 
32842
(
299.732
299.72
300
300
300
300
332.892
250
300
300
250
250
300
300
300
299.96
300
300
299.798
300
300
300
300
300
300
300
300
300
299.314
300
299.737
300
250
299.999
250
250
299.992
299.999
299.941
299.884
300
300
300
300
299.92
300
299.097
299.847
300
299.63
250
300
300
298.792
300
299.677
300
298.964
300
300
250
299.902
300
300
299.891
299.687
300
299.997
300
299.741
300
299.975
300
300
300
299.781
298.58
300
300
299.135
300
300
300
300
300
300
300
299.963
299.83
300
300
300
299.315
300
300
299.935
300
300
300
300
300
299.994
299.52
299.712
300
300
290.387
299.536
299.775
299.823
300
300
300.38
300
299.464
300
300
299.638
299.521
299.891
300
300
298.609
300
299.582
300
299.993
299.998
299.084
300
300
299.491
299.99
299.978
299.877
299.943
299.552
300.184
299.87
300.02
300
300
300
299.568
299.817
300
250
300
300
300
299.63
299.949
300
298.52
299.9
300
300
300
299.825
300
299.738
300
300
300
299.897
300
300
300
299.889
299.546
299.763
299.821
299.367
300
300
299.801
300
299.554
300
300
299.965
300
300
300
300
300
299.775
300
299.896
300
300
299.835
300
300
300
299.993
300
299.995
300
300
299.966
299.996
299.663
299.581
298.958
299.827
299.838
300
300
299.908
299.759
299.93
299.799
299.837
300
300
299.943
299.94
299.818
299.999
299.714
300
300
299.814
299.756
299.983
300
300
299.744
299.205
300
300
299.994
300
299.389
300
300
300.006
299.969
300
298.327
300
299.888
299.11
299.821
299.991
300
300
300
300
300
300
299.906
300
299.995
300
300
299.883
300
300
300
300
300
300
300
300
300
300
299.999
300
300
300
300
300
300
299.533
299.939
299.943
300
299.883
300
299.355
298.106
300
299.769
299.597
299.56
300
300
300
250
300
300
299.375
298.243
299.768
300
300
299.994
300
250
300
300
300
300
300
300
300
300
300
300
300
300
300
300
300
299.987
298.99
300
300
299.952
299.648
300
300
300
300
299.941
300
299.732
300
299.864
300
300
300
300
300
300
300
300
300
300
299.836
299.509
300
300
300
300
300
300
300
300.021
299.442
299.847
300
300
300
300
299.966
300
299.929
300
300
299.987
298.898
300
300
300
300
299.691
300
300
250
300
299.879
300
299.781
299.968
300
299.556
300
299.747
300
299.869
299.998
299.954
300
300
300
300
300
300
300
300
300
299.887
300
299.747
299.9
299.956
299.901
299.317
300
299.766
299.717
299.546
299.977
299.999
299.76
300
299.994
299.815
300
300
299.775
300
299.838
299.814
299.767
300.107
250
300.043
299.981
300
300
353.832
300
300
300
299.909
300
299.774
300
300
299.996
300
300
299.751
268.731
298.58
300
300
298.628
299.906
300
300
299.791
300
300
300
299.444
300
299.99
299.898
299.157
300
299.997
299.785
300
299.933
299.819
300
300
300
300
300
299.816
300
300
300
299.816
300
300
300
300
299.806
300
300
300
300
300
300
300
299.778
299.235
300
300
300
300
299.786
300
299.99
299.974
300
299.912
299.97
300
300
300
300.094
299.999
300
299.785
299.958
300
299.998
300
300
300
299.856
299.885
300
300
299.999
299.934
300
300
299.964
299.741
299.602
250
299.059
299.969
299.961
300.001
299.177
300
299.751
300
299.801
300
298.658
300
299.477
300.072
300
300
302.035
300
250
300.489
300.121
299.356
299.765
300.088
300
300
300.015
300
299.222
300
300
299.999
300.318
300
300
299.732
300
300
298.846
301.242
300
300
299.92
299.954
300.415
300
299.756
300
300
298.351
300
299.97
299.151
300
300
299.685
299.995
299.785
299.138
300
300
300
300.056
300
300
300
300
299.999
299.86
300
300
300
299.937
298.394
300
299.96
298.533
299.774
300
300
298.28
298.34
250
299.96
299.252
300
299.259
299.867
299.915
300
300
300
300
300
300.13
300
300
300
300
300
299.978
300
300.001
300.08
300
299.932
300
300.929
300.047
300.041
299.99
300.593
300
300
299.979
298.776
300
300
300
300
301.468
300
300
300
300
299.877
300
300
301.619
301.095
300.045
300
300
300
299.992
300
300
300
300
300
298.089
299.057
300
300
298.284
299.996
299.946
300
300
300
299.978
299.896
299.944
298.155
300
298.484
300
300
299.944
299.658
300.025
300.112
300
300
300
300
299.806
299.262
299.253
299.125
299.769
299.716
299.248
300
299.046
299.926
299.982
299.963
299.192
300
299.973
300
300
299.953
300
299.78
300
300
299.99
300
299.997
300
300
300
299.995
299.751
299.784
300
299.864
299.786
300
299.981
300
299.813
299.994
300
299.999
299.827
300.008
300
299.987
300
300
300
299.973
299.765
300
299.887
299.873
299.973
300.952
300
299.997
300
300
300
299.862
299.964
299.964
299.877
300
300
299.905
300
299.982
299.859
299.986
300
300
299.179
298.95
300
299.991
300
300
300
300
299.828
299.936
299.982
299.875
300
299.858
300
299.971
300
299.808
300
299.981
299.956
300
300.065
300
299.992
299.994
300
300
299.997
300
299.999
300
300
298.468
299.954
299.989
299.217
300
299.801
300.009
300
300
300
299.956
299.973
299.981
300
300
299.933
299.952
299.843
300
299.983
299.781
299.808
299.751
300
299.757
299.73
299.925
300
300
299.717
300
299.924
300
300
300
299.754
300
300
299.823
300
300
250
300
298.932
299.813
300
299.888
299.906
299.995
299.881
300
300
300
298.785
300
299.778
300
300
299.726
300
299.552
299.966
299.997
300
299.378
299.819
299.951
299.604
299.817
300
299.999
300
300
300
300
299.264
299.92
300
299.956
300
299.952
299.921
299.866
300
300
299.736
300
299.788
299.639
300
299.975
299.955
300.025
299.86
299.96
300
299.88
299.714
300
299.833
299.51
300
300
299.815
300
300
300
300
300
300
300
300
300
299.999
299.893
300
300
300
300
300
282.023
299.76
300
300
300
299.993
299.779
299.808
300
300
299.752
300
300
300
299.251
300
300
300
299.966
299.851
300
298.66
299.53
300
299.798
300
300
300
300
299.998
300
300
300
300
300
299.751
300
299.45
299.827
300
299.859
300
300
300
300
300
299.557
299.484
299.802
299.752
300
300
300
299.553
300
299.826
299.411
299.269
299.231
300
299.616
300
300.143
250
300
299.305
300.149
300.122
300
300
302.713
299.907
299.974
300
257.832
300
300
299.739
300
299.855
299.9
299.955
299.978
300
300
299.746
300.106
299.967
299.922
299.681
299.984
299.818
299.917
299.887
298.493
299.477
299.934
299.879
299.826
300
299.955
299.792
299.563
299.8
299.585
300.039
299.961
299.31
299.941
299.99
300
300
299.932
299.667
299.968
299.964
299.98
300
300
299.917
299.899
299.873
299.999
299.785
250
299.924
299.913
299.997
299.987
298.813
300
300
299.978
299.986
299.654
300
300
300.155
299.999
299.93
300.15
299.913
300
300
300
299.301
300.005
299.968
300.083
300.115
299.982
299.996
299.91
299.727
298.914
299.994
299.872
299.901
299.853
300.022
300.116
299.463
300.068
299.966
250
299.994
299.934
299.828
299.977
300
299.814
299.914
299.982
299.954
293.999
300
300
299.823
300
300
299.475
299.58
299.806
299.492
299.811
299.326
299.556
300
299.909
299.784
299.92
299.652
299.161
299.758
299.968
299.032
299.857
299.78
299.522
300
299.783
300
300.042
299.594
299.922
299.987
299.712
299.075
299.796
300.002
299.838
300
299.801
299.886
299.487
299.458
300
300
299.771
299.786
299.911
300.447
300
300.015
299.924
300
299.875
299.932
299.43
299.487
299.904
299.857
299.111
299.69
299.928
299.557
299.925
300
299.952
300
299.732
301.206
299.778
299.786
299.211
299.987
299.461
299.249
300
299.677
299.664
300.076
300
300
299.629
299.745
299.742
300.192
299.422
299.294
300.022
300.071
300
299.913
299.909
299.919
299.411
300
299.884
300
299.104
300.051
299.301
264.488
299.971
298.763
300.92
300.421
299.987
299.63
250
299.859
300
299.946
300.124
300
300
299.786
300.025
299.781
300.02
300.057
300
300.106
299.897
299.753
250
299.958
299.783
299.754
299.985
299.495
300.008
299.83
299.607
299.792
299.776
300
300
300
299.917
250
300
299.784
299.99
298.878
299.994
299.182
300
300
299.998
299.919
299.445
300
300
300.199
299.97
299.981
299.787
299.94
299.998
300
299.839
300
300.123
299.934
299.208
300
299.379
299.948
299.972
300
299.265
299.779
299.921
299.771
299.965
299.387
299.232
297.723
298.354
300
300.047
300
299.063
300
300
299.981
299.661
299.779
300
299.982
299.121
299.555
300
299.774
299.135
299.953
299.987
300
301.039
300.008
300
300
300.035
299.738
300.131
300
299.897
299.817
300.117
298.163
300
299.882
299.77
299.998
299.888
299.68
300
299.982
299.831
299.908
300.057
300
299.166
299.493
300
299.745
300.002
300
300
299.988
297.956
300
299.916
299.826
299.998
299.969
299.952
299.848
300
299.883
299.742
300
299.99
299.894
299.941
299.94
299.96
299.824
299.79
299.24
299.594
299.773
299.775
299.751
300
299.997
299.602
300
299.839
299.923
300.024
300.011
299.699
299.702
299.992
299.599
299.765
299.999
299.394
299.443
300
299.935
299.819
300
299.01
300
299.163
299.948
299.998
300
299.999
299.245
299.887
300
299.787
299.446
299.4
300
299.565
300
300
299.725
299.922
299.437
299.965
300
299.284
300
298.082
299.999
299.91
299.992
300.106
300
299.696
299.792
299.8
299.782
300.14
300.441
299.487
300
299.891
300.076
299.815
300
299.289
300
300.072
299.998
299.816
300.038
299.971
299.876
300
299.472
299.981
299.604
299.801
299.689
299.72
300.026
299.957
299.716
299.984
299.326
299.976
299.988
300
299.879
299.999
300
299.939
300
299.301
300
300.06
300.06
300.011
299.946
300
299.865
299.86
299.945
299.16
299.999
299.909
299.974
300
299.724
299.82
300.094
299.871
299.981
299.999
299.706
300
299.991
299.935
299.954
299.928
299.944
299.474
299.383
299.509
299.813
299.191
299.747
300
299.897
299.256
299.613
299.993
300
299.88
299.79
299.506
299.832
300
300
300.004
299.916
299.738
298.679
299.757
299.088
299.31
300
299.883
299.888
299.591
299.937
300
299.981
299.969
299.761
299.311
299.995
299.857
299.786
299.922
299.779
300
300
300
300
299.9
299.973
299.765
300
300.131
300.177
299.939
299.997
300.075
300
299.999
299.565
300.165
299.766
299.881
300
299.999
300.115
299.581
300.061
299.823
300
299.982
299.982
300.147
300
299.974
300
299.86
299.833
300
299.679
300
299.962
300
300
299.362
299.782
299.943
300
299.993
299.953
298.846
300.128
299.274
299.027
299.852
299.966
299.874
299.806
300
299.106
299.102
300
299.8
299.966
300
299.927
300
299.997
300
300
299.914
300.127
300
300
300
299.741
299.89
299.746
300
300
299.773
300.078
300.01
300.09
300
299.88
300
300
299.848
299.324
300
299.978
299.998
300.088
299.875
299.486
298.571
299.526
299.848
300.032
250
299.969
300
299.76
299.803
299.827
299.75
298.884
299.777
299.864
300
299.22
300
300
299.941
299.99
299.924
299.889
299.939
298.982
300
299.359
298.683
300
300
300
299.913
300
300
299.999
299.964
299.556
299.795
299.588
299.368
299.731
299.561
300
300
300
299.563
299.606
300
300
299.795
299.856
299.528
299.573
300
300
299.885
299.997
300.077
299.762
300
299.343
300
300.04
300
300
299.965
299.91
299.978
299.676
300
300
299.736
299.785
299.937
299.979
300
299.036
299.662
299.835
299.792
299.604
299.985
299.791
299.603
299.766
300.03
299.568
300
299.512
299.826
299.969
299.781
298.943
299.785
299.992
300
299.481
300
299.879
300
299.778
299.749
299.889
300.032
299.533
300
300
299.981
300
300
299.83
300
300
299.884
299.726
300
300.006
300
299.56
300
299.599
299.093
300
300.183
299.604
299.584
300
300
299.566
300
299.515
299.805
300
300
299.931
299.926
300
300
300
299.979
299.604
300
299.844
300
299.721
299.996
299.907
299.778
300
299.968
300
299.998
300
299.995
299.982
300
298.362
299.006
299.99
299.933
300
299.891
299.998
300
299.995
299.437
300
301.168
299.978
297.924
300
299.94
299.848
299.993
300.03
299.623
300
299.757
299.833
299.987
299.979
300.009
300.031
299.932
299.997
299.752
299.752
299.171
299.762
298.977
300
300
299.985
300
300
298.472
299.73
299.658
299.852
300
300
299.722
299.974
300
299.997
299.341
299.997
300
299.31
300
299.996
300
300
299.995
299.841
300
300
299.838
300
299.879
299.942
254.813
299.997
299.972
298.865
300
300
299.868
300
299.98
299.557
300
299.826
299.82
299.951
299.542
300.017
300
299.522
299.928
299.583
300
300
299.218
299.995
300
299.921
300
299.995
299.979
300
299.527
299.833
300
299.525
299.597
299.918
250
300
300
299.456
300
299.98
299.227
299.973
299.027
299.2
299.169
299.999
299.907
300.085
299.814
300
300.055
300
299.821
299.945
299.977
298.256
299.88
299.817
299.257
299.86
300.037
299.917
298.035
300
300
301.206
299.927
300
300
299.943
299.983
300
299.039
299.752
299.867
299.972
299.849
300
299.374
300
299.403
300
300
299.895
299.973
299.975
299.585
298.785
299.967
299.873
300
299.372
299.871
300
299.825
299.394
299.998
300
300
299.708
299.411
299.149
298.881
299.575
299.464
299.885
299.95
299.581
299.864
299.777
299.751
299.444
299.969
299.905
299.849
299.964
300
300
299.133
300
299.908
299.206
300.516
299.945
299.378
300.414
300
299.906
299.731
299.999
300
299.998
299.588
299.705
299.206
299.982
299.278
299.86
300.233
299.404
299.876
299.946
299.165
299.686
299.77
300
299.83
299.538
299.676
299.566
250
299.988
300
299.86
300.041
300
299.557
299.811
299.988
300
299.667
299.045
299.938
299.918
299.924
299.757
299.516
300
300
299.245
299.879
300.326
300
299.423
299.997
299.535
299.495
299.835
300
299.878
299.73
299.99
300
299.856
300
299.705
299.634
299.497
299.638
299.446
299.394
300
298.395
300
299.998
300
300
300
299.998
300
300
299.73
299.86
299.999
300
299.882
300
300
300
299.997
299.998
299.964
300
300
300
299.933
299.423
299.998
299.039
298.943
300
299.199
300
298.923
300
300
300
299.999
300
300
299.036
299.836
299.687
300
300
300
299.809
299.934
299.903
300
299.998
299.997
300
299.372
299.379
299.895
298.954
299.771
300
300
300
300
299.223
299.319
297.957
299.178
299.921
300
300
299.903
299.991
300
299.998
300
300
300
299.801
299.849
299.758
300.151
299.982
300.11
299.449
299.344
299.941
299.322
299.946
299.854
299.175
300.005
300
299.251
300
299.896
299.996
299.893
300.141
300.047
299.903
300
299.986
299.571
300
299.981
300
300.19
299.533
300.003
300
300
300
300
299.783
299.819
299.908
299.909
299.991
300
299.899
299.91
299.819
299.883
299.584
300
300.18
299.492
299.213
300.126
300
300
300.068
300.155
300
299.911
299.963
299.903
299.973
299.975
299.899
299.597
299.356
300.034
299.511
300
299.875
299.441
299.46
300.135
299.76
299.995
300
299.911
299.914
299.766
299.614
300.03
299.43
299.432
299.919
299.802
299.982
299.419
299.878
299.808
299.808
300
299.862
300
299.825
299.951
299.921
300
299.994
300
300
300
300
298.829
299.518
299.894
300.052
299.957
299.486
299.951
300.002
299.839
299.604
299.375
299.458
300.064
299.418
299.721
299.81
299.498
299.997
299.089
299.401
299.975
300
299.444
300
300
300
299.602
300
299.031
299.946
299.04
299.543
300.038
299.892
300.012
299.826
300
300
299.881
300
299.691
299.67
299.997
299.81
299.366
299.946
299.985
299.827
298.835
299.387
299.978
299.443
299.992
299.896
299.918
300
299.991
299.831
299.771
300
299.971
299.939
299.525
300
299.581
299.773
300.14
300
300.794
299.177
300
300
299.915
299.497
299.561
300
299.724
299.523
299.502
299.404
299.118
299.569
299.739
299.814
299.994
299.413
299.885
300.101
299.64
299.884
300.104
299.391
300
299.999
299.68
250
299.812
298.652
299.451
299.954
299.824
299.901
299.871
299.497
299.878
299.981
299.958
299.906
299.798
299.599
300.003
299.76
299.896
299.83
299.999
300
300
300
299.715
298.962
300
299.775
300
300.072
299.863
299.938
299.868
299.897
299.777
299.803
300.016
299.827
300
299.915
299.762
297.8
300
299.573
299.91
299.867
300.022
300
299.888
299.999
299.529
299.263
299.541
300.058
299.285
299.322
299.961
289.532
299.881
299.896
299.922
299.866
299.994
299.95
299.991
300.048
299.526
299.533
299.59
299.953
299.532
299.525
299.521
299.988
299.822
299.973
299.48
299.844
299.753
300
287.934
299.8
299.504
299.954
300
300.029
299.97
299.519
299.979
299.709
300.027
299.74
299.498
300
297.485
299.828
299.566
299.982
299.865
299.963
299.974
299.926
299.582
299.347
299.551
299.927
299.884
299.976
300.071
299.938
298.367
289.609
299.962
300.014
299.97
299.981
300.011
299.983
299.814
299.907
299.715
299.63
299.656
299.777
298.439
299.742
300.309
299.994
299.841
300.025
299.771
299.923
299.529
298.737
299.341
299.531
299.832
299.928
299.335
299.999
299.988
299.447
299.489
299.73
299.937
299.737
299.87
300
300.114
299.92
300
299.691
299.959
300
299.676
299.856
299.78
299.978
299.291
299.37
300
299.998
300.003
299.607
299.885
299.955
300
299.777
300.222
299.808
299.715
300
299.993
299.924
299.647
299.553
267.918
299.724
299.564
298.831
299.658
299.758
299.958
299.702
299.729
299.481
299.755
299.525
299.919
299.882
299.804
300
300
299.793
299.984
299.74
299.974
299.809
299.94
299.952
299.996
299.975
299.858
300.116
299.953
299.762
302.046
299.966
299.977
299.851
299.895
299.444
299.642
299.568
300
299.984
299.984
299.915
299.996
299.974
299.985
299.894
299.588
299.325
299.99
299.457
299.989
299.509
299.977
299.321
299.849
299.355
299.771
299.996
299.994
300
300.086
300
300
300
300
300
300
300
300.034
300
299.42
299.456
300
300
300
299.926
299.995
300.68
299.962
299.716
299.824
300
300
299.194
299.381
300
300
299.763
299.991
300
300
300
299.997
299.48
300
300
300
300
300
300
299.856
299.378
300
299.774
299.952
300
300
298.321
299.945
300
299.823
300
300
300
300
300
300
300
300
300
300
300
300
298.894
300
299.922
300
300
300
300
300
300
299.058
300
299.999
300
300
300
299.612
299.991
299.917
299.903
300
300
300
300
300
300
300
300
300
300
300
300
300
300
300
300
300
300
299.422
300
300
300
300
300.006
300
300
300
300
300
300
299.775
299.534
300
300
299.309
300
299.879
300
299.46
299.897
299.99
299.416
300
299.33
300
300
300
300
300
300
300
300
300
300
300
300
300
300
300
300
300
299.304
299.304
300
300
299.539
300
299.664
300
299.731
300
300
300
300
300
300
300
300
300
300
299.853
300
299.999
300
299.776
300
300
300
300
300
300
300
299.8
299.832
299.959
299.892
300
299.865
300.027
300
300
300
300
300
300
299.865
300
300
300
300
300
300
300
300
300
299.843
300
300
300
300
300
299.567
300
300
299.969
299.128
299.897
299.171
299.047
299.954
300
299.217
299.705
300
298.62
300
299.992
299.623
300.513
299.396
300
298.874
299.575
299.574
299.279
299.972
300
299.884
299.787
299.39
299.71
297.353
299.929
299.531
299.505
298.284
298.392
297.706
300
300
300
250
299.659
299.803
300
299.985
300
299.995
300
299.448
300
299.974
299.971
299.439
300.007
299.573
299.992
299.943
300.172
297.255
300
299.924
299.997
297.094
300
300
300.043
299.982
300
299.81
300
299.99
300
297.417
299.86
300.017
300
300
297.303
300
300
300
299.92
299.984
299.999
300
300
299.047
298.751
299.843
299.796
299.879
299.997
299.856
299.914
299.806
300
300
299.957
299.905
299.995
299.998
301.815
250
297.422
299.813
299.987
299.943
299.98
300
299.976
299.995
299.998
299.437
299.994
297.439
299.026
299.497
300
297.671
297.797
299.99
299.817
299.77
300.003
299.915
300
299.363
299.922
299.828
300.106
299.86
299.365
299.766
299.963
299.817
299.866
300
299.999
299.791
299.707
300
299.785
299.985
299.827
299.847
300
299.999
300
300
300.064
299.996
299.124
300
300
299.941
299.893
299.831
300
299.081
300
299.936
300
299.94
299.993
299.943
300
299.916
299.762
299.803
299.776
300
300.02
299.913
299.898
299.926
299.183
299.926
299.793
300
300
299.822
299.304
300.149
300.137
299.938
299.639
299.939
299.387
299.906
299.96
300
299.822
300.007
300
299.233
299.758
299.442
299.275
300.042
299.999
299.952
300.072
300.067
300.014
299.997
299.921
299.763
300
299.991
299.95
298.358
299.054
299.916
300
299.868
299.821
299.822
299.918
299.96
299.895
300
298.506
300.008
299.95
299.128
299.603
298.337
299.649
299.872
300
299.466
299.249
300
299.965
299.015
300.008
300.011
300
299.561
300
300
300
300
300.021
300.081
299.931
299.779
299.964
299.827
299.999
299.791
299.781
300.062
298.826
299.891
299.825
300.153
298.79
299.999
299.992
299.825
300
300.046
299.852
300.053
299.705
300.062
300
299.082
300
300
298.915
299.439
299.908
300.141
300
300
300
299.789
299.773
299.899
299.787
299.272
299.796
299.941
299.026
300
299.9
300.021
300
299.963
299.971
299.313
300
300
300.022
300.132
299.458
299.53
300
300.035
299.891
299.796
300.079
300.115
299.765
299.652
300.093
300
300.08
299.675
298.81
299.783
299.244
299.908
299.946
299.972
299.813
299.757
300
300
299.322
299.939
299.917
299.756
299.866
300.235
300
299.862
298.792
299.784
299.654
299.769
299.685
300.029
299.96
299.105
299.384
299.443
299.351
299.274
300
299.18
299.581
299.632
300
300
299.529
299.293
300
299.413
299.265
299.961
299.708
300
299.645
299.624
299.652
299.727
299.743
299.956
300
300.02
299.917
300
299.526
300
299.509
299.983
299.944
299.975
300
299.864
300
300
300
299.998
299.581
300
299.959
299.999
298.992
300
299.748
300.009
300
299.444
299.578
299.866
299.897
299.278
299.569
300.019
300.112
300.029
299.872
300.022
298.87
299.84
299.985
299.838
299.721
299.272
300.038
300
299.406
298.308
299.523
299.406
299.51
299.729
299.811
299.999
299.66
299.807
299.603
299.584
299.691
299.86
300.678
299.954
299.551
299.598
299.454
299.448
299.676
299.015
298.839
299.452
299.777
298.924
299.694
299.636
299.669
299.986
299.121
299.837
299.678
299.521
299.923
299.598
299.467
299.728
299.834
299.54
300
299.674
299.899
299.88
299.87
299.534
299.693
299.637
298.835
299.722
299.269
299.705
299.631
299.96
299.786
299.921
300
299.949
299.65
299.555
299.615
299.388
299.269
298.975
299.385
299.236
299.474
299.749
299.156
299.805
299.536
299.606
299.626
299.959
299.94
299.248
299.831
299.469
299.801
299.17
300
299.028
299.869
298.905
299.306
297.388
299.127
297.09
300
298.985
300.192
299.747
299.682
299.268
299.502
299.315
299.47
299.743
299.97
299.799
299.435
299.721
299.626
300.042
299.749
299.562
299.531
299.979
299.935
299.999
299.777
299.588
299.897
299.778
299.852
299.999
299.766
299.964
299.581
297.347
299.804
299.602
299.67
299.973
299.948
300.377
299.992
299.833
297.769
299.009
299.395
299.972
299.036
299.794
299.757
299.635
299.521
299.387
300.044
299.683
299.568
299.332
299.675
300.565
299.683
299.661
299.008
298.089
297.983
299.161
300.355
299.352
300
299.624
299.631
299.533
299.659
299.602
299.552
299.942
299.218
299.489
299.564
299.554
299.398
299.495
299.629
299.796
298.291
299.955
299.326
299.3
299.624
300.006
299.947
299.413
298.626
298.301
299.526
299.561
299.581
299.822
299.348
299.793
299.856
299.766
298.582
299.473
299.843
299.685
299.946
298.8
299.985
299.99
299.983
298.942
299.058
298.717
299.063
300
299.008
299.641
298.585
299.043
300
299.695
299.855
299.511
298.012
300
298.563
298.871
299.816
299.876
299.845
300.003
299.748
299.792
273.161
299.764
298.094
299.882
299.909
299.961
299.771
299.807
299.795
299.502
297.908
297.545
299.869
299.742
299.871
297.429
299.662
297.658
299.989
299.927
298.437
298.463
298.583
299.864
298.028
299.914
300.141
299.754
297.61
300
300
300.733
300
297.775
299.801
299.994
300.633
299.841
298.78
299.271
298.71
297.549
299.686
299.18
299.897
297.631
299.976
300
298.421
299.575
299.165
299.97
298.473
298.928
299.795
300.036
299.586
298.121
299.938
299.69
298.545
298.065
299.85
299.695
299.789
298.726
299.853
299.571
299.822
298.557
299.662
299.847
299.887
299.711
299.698
299.798
298.484
299.965
299.858
299.95
299.981
298.066
298.82
299.91
299.861
298.044
299.266
300
299.639
298.922
299.863
297.831
299.83
299.783
297.47
298.981
299.88
299.864
297.778
300
299.609
299.794
300.037
299.814
299.822
299.703
299.495
300.057
299.91
297.554
299.868
297.929
297.672
299.73
299.966
299.739
298.649
299.51
299.962
299.084
298.84
299.837
297.949
299.134
299.937
299.357
297.842
297.858
299.992
299.655
299.726
299.752
299.812
299.302
299.546
298.655
299.767
299.796
299.997
299.75
297.729
299.702
299.741
299.812
298.702
300
299.825
297.709
298.601
297.855
299.775
299.857
299.89
298.958
299.098
299.936
299.393
299.798
298.835
299.63
300.013
299.719
299.844
299.779
299.83
298.341
299.83
299.835
299.29
297.765
298.453
298.586
300
299.572
299.972
299.997
298.475
299.782
299.784
299.874
299.836
299.845
299.783
298.449
299.967
299.66
299.993
299.072
299.074
299.563
300.002
299.841
297.315
299.782
299.775
300.006
299.928
299.981
299.789
298.12
299.963
297.969
299.68
299.829
299.916
299.533
299.969
300.005
297.671
299.798
299.794
299.886
299.761
298.45
299.757
299.77
299.039
299.836
299.269
299.741
299.902
299.886
299.378
299.87
299.825
299.904
299.77
299.87
300
299.915
299.974
299.993
299.944
299.94
299.951
299.668
299.883
299.852
300.075
299.301
300.075
299.849
299.831
300.013
299.885
299.138
298.824
299.862
300.016
300.126
300.038
299.901
299.914
299.991
298.642
299.768
300.154
300.007
299.664
299.783
299.931
300.104
300.069
299.846
300.021
299.705
299.991
299.674
300
299.947
299.322
299.894
300.035
299.805
299.949
299.73
299.999
299.995
299.461
299.834
300
299.707
299.622
299.989
299.845
299.565
300.013
299.766
300
299.731
299.79
299.49
299.794
298.923
300
299.609
300
299.962
299.656
299.215
297.907
299.443
300
298.015
299.921
299.893
299.207
299.49
299.545
299.564
299.433
299.926
299.577
297.905
299.688
298.106
299.486
299.268
298.866
300
297.831
300
297.918
300
299.795
300
299.844
299.816
299.742
299.688
298.222
299.496
300.018
299.93
299.882
298.487
297.876
300.547
298.304
299.534
299.682
299.762
299.965
299.687
299.757
299.505
299.783
250
299.797
299.999
297.869
299.752
299.692
299.995
299.803
300.004
299.495
299.913
299.889
299.095
299.808
299.403
300.017
300
299.932
299.78
299.844
298.393
299.696
298.32
299.977
299.02
300
299.637
299.587
299.032
298.999
299.781
299.779
299.85
299.926
299.263
299.853
299.128
299.372
299.943
300
299.785
300
299.791
300.034
299.755
299.773
299.151
299.767
299.683
299.648
299.754
299.997
299.758
299.652
299.863
299.376
299.705
299.087
299.617
299.665
299.876
299.405
300
300
299.369
299.902
299.434
300
299.71
299.862
299.811
299.906
299.749
300.031
299.999
299.731
299.999
299.853
299.444
299.185
299.398
298.947
299.982
299.631
299.974
299.893
299.729
299.929
299.294
299.886
300
299.473
299.756
299.627
299.657
300
299.461
299.888
299.247
299.839
299.779
300
299.455
299.274
299.779
299.595
299.928
299.753
299.792
299.845
299.914
299.924
300.133
299.989
299.705
299.813
300
299.925
300.011
299.242
299.68
299.48
299.32
299.695
299.752
299.911
299.95
300.038
299.667
299.33
299.184
299.78
299.954
299.881
300.035
299.659
299.173
300.034
299.968
299.638
299.999
299.764
299.695
299.873
299.663
299.544
299.961
299.991
299.848
299.245
299.272
299.57
300.076
299.973
299.534
300.032
299.57
299.881
300
299.86
299.632
299.35
299.561
299.907
299.998
299.729
299.316
299.74
299.919
299.995
300.385
299.725
299.857
299.902
300.121
299.997
300
300
299.955
300
300
299.956
299.939
299.816
300
299.75
300
300.12
300
300
300.004
299.688
300
299.458
299.76
300
300.018
300
300
300
300
300
300
299.645
299.992
300
299.863
299.874
300.017
299.98
299.979
299.933
299.772
299.743
300
299.857
300.018
299.99
299.849
299.462
299.91
299.571
300.024
300
299.89
299.908
299.971
299.879
299.97
299.974
299.946
299.453
299.959
299.983
300.036
299.914
300
299.601
299.885
299.826
299.924
299.889
299.426
300
300
299.791
299.507
299.294
299.886
298.821
299.991
299.925
300
299.127
299.495
300
300
299.889
299.859
300
299.772
300
299.539
299.996
300
300
298.991
298.7
298.558
299.5
300
300
299.935
299.841
300
300
300
299.89
299.87
300
300
300
300
300
300
300
299.757
299.963
300
300
300
299.602
300
300.088
300
299.681
300
300
300
300
300
300
300
300
300
300
299.898
300
300
299.529
299.677
300
300
300
300
299.969
299.748
300
299.852
298.769
299.872
300
300
299.515
300.035
299.88
300
299.937
300
300
299.822
300.063
300.085
300.011
299.945
300
300
299.979
300
300
300
299.968
299.948
300
300
300
300
300
300
300
299.726
300
300
299.939
300
299.47
300.153
299.544
300
300
300.063
300
300
300.073
299.642
300
299.353
300
299.974
300.212
300
300
300
300
300
299.839
300
300
299.998
300
300
300
300.193
300
300.188
300
300
300
299.957
299.856
299.995
299.033
299.834
299.758
299.998
300
299.942
299.635
299.875
299.808
300
300.011
300
300
299.804
299.432
300
299.477
300
300
300.042
299.86
299.974
300
299.999
299.777
299.989
299.999
299.408
300
300.069
299.989
300
300
299.618
299.499
300
300
299.943
300
299.999
300
299.979
299.95
299.864
299.998
300
300
300
299.91
299.922
300
299.939
299.919
300
299.733
299.996
300
300
299.962
299.86
300
300
299.774
299.831
299.735
299.549
299.776
299.794
299.923
300
299.991
300
300
300
300
300
300
300.104
299.994
299.877
300.084
299.993
299.852
300.077
299.963
300
300
300
300
299.995
299.999
299.847
300
299.886
300
300
300
300
299.951
300
299.624
299.595
300.014
300
300
299.979
300.098
299.91
300
300
299.897
300
300.09
299.949
299.774
300.143
300
299.811
300.006
300
300
300.127
300
300
299.981
300
300
299.872
300
300
300
299.891
300.119
300
300
299.852
300
299.85
300
300
299.998
299.996
299.987
300
300
299.62
299.814
300
299.982
300
300
300
300
299.712
299.806
300
300
300
300
300
299.772
300
299.986
300
300.01
300
300
300
300
299.971
300
300
299.942
300
299.886
300
300
300
300
300
300.008
300
300
299.615
300.107
299.987
300
300
300
300
299.551
299.559
300
300
300
300
300
300
300
299.886
300
300
300
300.117
300
300
300
300
299.909
300.02
300
300.015
300
300.061
300
300
300
299.779
299.853
299.926
300
299.989
300
299.959
300
300
300
299.915
300
299.895
300
300
300
300
299.928
300
299.662
300
299.904
299.876
299.876
300
299.522
300
299.872
300
300
299.99
299.84
300
300
299.835
300.004
300
299.761
300
300
300
300
299.806
300
299.461
300
300
300
300
300
299.574
299.812
300
300
300
300
300
300
299.607
300
299.509
300
300
300
299.994
300
300
300
300
300
300.048
300
299.778
300
300
300
300
299.81
300
300
299.898
299.845
300.07
299.794
299.891
300
299.841
299.998
299.978
299.845
299.59
299.88
300
299.78
299.632
299.855
299.966
299.851
300.023
299.963
299.963
299.972
300.01
299.956
300.014