/*--------------------------------*- C++ -*----------------------------------*\
| =========                 |                                                 |
| \\      /  F ield         | OpenFOAM: The Open Source CFD Toolbox           |
|  \\    /   O peration     | Version:  2312                                  |
|   \\  /    A nd           | Website:  www.openfoam.com                      |
|    \\/     M anipulation  |                                                 |
\*---------------------------------------------------------------------------*/
FoamFile
{
    version     2.0;
    format      ascii;
    arch        "LSB;label=32;scalar=64";
    class       volScalarField;
    location    "0.05";
    object      alphat;
}
// * * * * * * * * * * * * * * * * * * * * * * * * * * * * * * * * * * * * * //

dimensions      [1 -1 -1 0 0 0 0];

internalField   nonuniform List<scalar> 
32842
(
0.000883901
0.000883901
0.000883901
0.000883901
0.000897192
0.000883901
0.00830825
0.0109584
0.000883901
0.000883901
0.07801
0.0844387
0.000883901
0.000883901
0.000883836
0.000883901
0.000883901
0.000883901
0.000883901
0.000896796
0.0008988
0.000897893
0.000896405
0.000883901
0.000895944
0.000883901
0.000883901
0.000892316
0.363118
0.000883901
0.139353
0.665652
0.00397612
0.000883901
0.000979923
0.00292801
0.000896128
0.000883901
0.000883901
0.000883901
0.000883901
0.000898621
0.000883901
0.000883901
0.477079
0.000883901
0.000987343
0.000883901
0.000898014
0.00254015
0.00256719
0.000883901
0.825409
0.00102485
0.000883901
0.000883906
0.000883901
0.000992853
0.000883901
0.000883901
0.0123343
0.793997
0.884126
0.00089866
0.000883901
0.000882515
0.000883901
0.97148
0.614985
0.000883901
0.000891763
0.000964062
0.699316
0.000883901
0.000883901
0.000883901
0.319071
0.000883901
0.697147
0.00105046
0.000897042
0.000883901
0.000883901
0.774132
1.08105
0.000883901
0.000883901
0.000883901
0.203268
0.000883901
0.000897246
0.000898031
0.00088383
0.000883893
0.000883901
0.000883901
0.67813
0.000883896
1.00359
0.000883901
0.000883901
0.000899972
0.000883901
0.10941
0.69361
0.636591
0.224958
0.000883901
0.744127
0.000883901
0.000883901
0.000883901
0.000882735
0.000883901
0.000883901
0.000898254
0.758978
0.196373
0.000883901
0.000883901
0.000883901
0.000883901
0.00689473
0.000883901
0.000883901
0.689906
0.558104
0.000883901
0.000883768
0.000883901
0.000883901
0.0008839
0.000900418
0.698938
0.000899051
0.000883901
0.000883899
0.0839949
0.000883901
0.000883901
0.744291
0.000883901
0.738749
0.000883896
0.000883901
0.000883901
5.79004e-06
0.000883901
0.000883901
0.000883901
0.000883901
0.246388
0.000894527
0.000996902
0.000883901
0.000883901
0.000883901
0.000883901
0.000883901
0.000883901
0.000883901
0.000883901
0.000896046
0.000883901
0.000883901
0.000883901
0.000883901
0.000883901
0.000883901
0.235533
0.000883897
0.000898314
0.000883888
0.000883901
0.000899023
0.00107129
0.000883901
0.000883901
0.000883901
0.000883901
0.000889905
0.000883901
0.000883901
0.000883901
0.76356
0.000883901
0.707286
0.000883901
0.000883901
0.000883901
0.000883901
0.170132
0.603352
0.000883901
0.626399
0.000883901
0.000883901
0.000883901
0.676498
0.000883901
0.000883901
0.000883901
0.14809
0.000953776
0.000878485
0.000903528
0.000883901
0.000898786
0.63297
0.000883901
0.000883901
0.000883901
0.000883879
0.000883862
0.000883901
0.000883901
0.000883901
0.000883901
0.000883901
0.000883901
0.181729
0.000883901
0.000883901
0.000883901
0.000899878
0.532736
0.000883901
0.652463
0.000883901
0.000883677
0.000883901
0.000883901
0.000883901
0.000883901
0.000883853
0.00089703
0.000897446
0.000883899
0.000883901
0.792044
0.00262221
0.000883901
0.000883901
0.000971643
0.000883901
0.000883901
0.837862
0.000883901
0.000883901
0.000883901
0.000883901
0.000883901
0.000883901
0.676897
0.000883901
0.000883901
0.000883901
0.000883878
0.000883901
0.000883901
0.000883901
0.000883901
0.000883901
0.000883901
0.518441
0.000883901
0.000883901
0.000883901
0.000883901
0.000883901
0.000883901
0.679548
0.000883901
0.526335
0.000883901
0.00101876
0.000883901
0.000898147
0.000883901
0.000883901
0.000883901
0.00088383
0.000883491
0.000883901
0.000883901
0.000883904
0.000883856
0.000883901
0.000898758
0.000883901
0.00311089
0.000883901
0.612228
0.000883831
0.2357
0.000883901
0.607735
0.000883901
0.000883901
0.000895793
0.102238
0.000883901
0.000883901
0.000883901
0.000883901
0.000883901
0.000883901
0.000883901
0.000883901
0.800679
0.000883901
0.000883901
0.786554
0.000883901
0.000883901
0.000883901
0.000883901
0.000884006
0.000883901
0.000883901
0.000883901
0.000819969
0.000883901
0.000888553
0.000883901
0.000883901
0.000883901
0.000883901
0.000883901
0.000883901
0.000883901
0.710529
0.000883901
0.000883901
0.000883901
0.000883901
1.32157
0.616973
0.000883901
0.000883901
0.000883901
0.000883901
0.000883899
0.000883901
0.797827
0.000883901
0.000883901
0.6466
0.917394
0.733203
0.000883901
0.000883835
0.000883901
0.675842
0.000883901
0.000883901
0.0008962
0.000883901
0.000883901
0.000883901
0.000883901
0.000883901
0.000883901
0.00986156
0.000883901
0.000883901
0.000883901
0.000883901
0.000883899
0.000895366
0.000883901
0.00537865
0.000883901
0.000897247
0.000883901
0.747315
0.000897367
0.000883901
0.0008839
0.000896173
0.000883901
0.810587
0.690787
0.000883901
0.000883901
0.000883901
0.000883901
0.000883901
0.000883901
0.000883901
0.000883901
0.000883901
0.000883901
0.000883901
0.000883901
0.000883901
0.000883901
0.000883901
0.000883901
0.000883901
0.0270103
0.000883901
0.000883901
0.000883901
0.00088386
0.000883901
0.000883901
0.000899567
0.000883901
0.000896138
0.555299
0.000883901
0.000883901
0.000883901
0.000883901
0.000883901
0.000883901
0.000883901
0.000883901
0.00089296
0.000883901
0.699955
0.000883901
0.000898926
0.179399
0.000883901
0.000883901
0.000883901
0.000883901
0.000883901
0.000883901
0.000883901
0.000883901
0.70921
0.000896919
1.35105
0.000883901
0.00469784
0.000938641
0.751285
0.00089869
0.00232117
0.000896403
0.765126
0.000883901
0.000883901
0.000889944
0.000883901
0.000894982
0.000883899
0.000883901
0.000883901
0.000883901
0.000883762
0.000894192
0.000883901
0.000883901
0.000897644
0.000883901
0.000883901
0.000883901
0.000899569
0.000883901
0.000883901
0.000883901
0.000883901
0.000883901
0.770703
0.000883901
0.000883901
0.000883901
0.000899803
0.000897334
0.000883901
0.000883901
0.774672
0.720745
0.000883901
0.000883901
0.000883901
0.000883901
0.0008971
0.000883901
0.000978032
0.772869
0.000883901
0.000883901
0.984361
0.000883901
0.000883901
0.000896479
0.000883901
0.000890311
0.000883901
0.734445
0.000898905
0.589763
0.777005
0.000883899
0.000883901
0.000898028
0.000883862
0.000883901
0.727582
0.000897431
0.999636
0.000894315
0.000883901
0.000883863
0.000897342
0.000883901
0.70171
0.000883901
0.689448
0.000883901
0.000883901
0.000897066
0.000898404
0.000883853
0.0119311
0.1759
0.000957032
0.000883882
0.000883889
0.000883783
0.750095
0.000883901
0.000883901
0.000883901
0.773066
0.186627
0.900014
0.000931926
0.000883901
0.000883901
0.000894484
0.190533
0.000883901
0.136639
0.000877849
0.000883901
0.000884043
0.000883901
0.000883892
0.000883901
0.000883901
0.000883901
0.738024
0.000940953
0.000883901
0.000899903
0.000883901
0.293792
0.612856
0.000883901
0.000883901
0.000883901
0.000883901
0.00294309
0.00092197
0.000883901
0.000883901
0.000883901
0.680811
0.00274793
0.966951
0.000883901
0.000883901
0.000883901
0.000979513
0.78389
0.590245
0.2257
0.603627
0.000883901
0.000883876
0.605035
0.000883901
0.000919008
0.000883901
0.000897219
0.000883901
0.000883899
0.000897498
0.000896192
0.000883901
0.000883901
0.000883901
0.000883901
0.781958
0.000899151
0.000883901
0.000883901
0.000944198
0.000883901
0.000901419
0.22542
0.924099
0.0008839
0.000883901
0.000967894
0.202042
0.00184576
0.000883901
0.00220617
1.11232
0.000811274
0.000883901
0.00202461
0.000883901
0.000883901
0.000883901
0.000883901
0.000883901
0.00241306
0.000897612
0.000883901
0.000883901
0.000883901
0.000883901
0.000883901
0.000883901
0.000883901
0.0032336
0.95727
0.000883901
0.000883901
0.000637045
0.00283957
0.0966098
0.000883901
0.2714
0.000883901
0.000883901
0.000883901
0.000981399
0.700023
0.000883901
0.000896721
0.000883901
0.33216
0.000883901
0.000883901
0.000883901
0.000883901
0.376317
0.000883901
0.000883901
0.000980595
0.000946975
0.000883901
0.000883901
0.000883901
0.61636
1.08905
0.000883901
0.709076
0.000896808
0.000883901
0.000883901
0.00088326
0.000882688
0.000883901
0.988257
0.000883421
0.000883901
0.0008839
0.000883901
0.000883901
0.000898146
0.000897355
0.000883901
0.000883901
0.00100811
0.000883901
0.000873563
0.000883901
0.000883901
0.249997
0.000882462
0.00088398
0.000955965
0.000883901
0.000883901
0.000895255
0.000896478
0.000963297
0.0493181
0.000882341
0.000946549
0.000883901
0.0008839
0.000882596
0.000883901
0.00147157
0.000883901
0.000883901
0.86204
0.0478464
0.000883897
0.000883901
0.000883901
0.000883901
0.000883901
0.000883901
0.000883901
0.000883901
0.000883901
0.803043
0.000883901
0.000883901
0.000883901
1.25918
0.000883901
0.000883901
0.000883901
0.608842
0.000883901
0.000883901
0.000883901
0.000883901
0.000883901
0.000883901
0.000883901
0.000883901
0.000883901
0.000883901
0.000883901
0.000889608
0.000883899
0.000897948
0.000889467
0.000899483
0.000883901
0.000897618
0.000897659
0.587113
0.000883901
0.000883901
0.000894616
0.00114226
0.000883901
0.53944
0.000896341
0.000883901
0.000883901
0.0008839
0.000883901
0.000883901
0.820906
0.000883901
0.000883901
0.000883901
0.000898721
0.68586
0.000883901
0.000896606
0.000883901
0.000895091
0.00100669
0.000883758
0.000895559
0.000883901
0.915114
0.000883901
0.000883901
0.000883901
0.000883901
0.000883901
0.000883901
0.251501
0.000883901
0.000883901
0.826256
0.000896617
0.000883901
0.000883901
0.000883901
0.913133
0.000900036
0.745776
0.000883901
0.602001
0.545309
0.000897526
0.000883901
0.000894457
0.000883901
0.000899808
0.000883901
0.000883901
0.000898358
0.342397
0.673608
0.000883901
0.000883352
0.000883876
0.569344
0.000883901
0.000883901
0.000883901
0.000883901
0.000883901
0.000883901
0.000883901
0.000883901
0.000883901
0.000883901
0.000883901
0.000883901
0.677238
0.000883901
0.195677
0.000883901
0.000883901
0.000897338
0.000932191
0.000883901
0.000883901
0.000898523
0.000883901
0.000883901
0.000883901
0.000900069
0.907022
0.000883901
0.000883901
0.000883901
0.000883884
0.000883901
0.000883901
0.000883901
0.000883901
0.00414739
0.000883901
0.00379984
0.000883901
0.000883901
0.000883901
0.000883901
0.000895471
0.000883901
0.000883901
0.000883901
0.000883901
0.213375
0.000883901
0.000883901
0.735152
0.000883882
0.686865
0.000883901
0.000883237
0.000883901
0.000883901
0.929693
0.000883832
0.000883901
0.000883901
0.000883859
0.000894319
0.000883901
0.000883901
0.000883901
0.000883901
0.000883901
0.676898
0.24997
0.701318
0.000883901
0.752032
0.000883901
0.000883901
0.000883901
0.000883901
0.00088968
0.000883901
0.000883901
0.000883901
0.000883901
0.000883901
0.000883901
0.000883901
0.000883901
0.000883901
0.000918419
0.000896887
0.000883901
0.179118
0.154931
0.000883901
0.000883901
0.16763
0.000883901
0.000883901
0.000883901
0.530054
0.000883901
0.000883901
0.657572
0.000897933
0.000883901
0.000883901
0.000883901
0.000883901
0.000889565
0.179504
0.000883901
0.000883901
0.582176
0.000883901
0.000883901
0.242645
0.000883901
0.000883901
0.000883901
0.000883901
0.670573
0.000883901
0.000883901
0.000883901
0.000883901
0.000895788
0.000883901
0.581485
0.000897278
0.000883608
0.000883901
0.000883901
0.000883901
0.000883901
0.000883901
0.000883901
0.186386
0.220705
0.000893985
0.000910452
0.000883901
0.000895515
0.000883901
0.000883901
0.000883901
0.000883901
0.000883901
0.000883901
0.000883901
0.000883901
0.000883901
0.000883901
0.0346715
0.000883901
0.956544
0.000883901
0.7978
0.774378
0.000883901
0.00089608
0.781983
0.000957117
0.000882686
0.000817769
0.000883901
0.000883901
0.000883901
0.000883901
0.00480623
0.000883901
0.147371
0.00268204
0.000924868
0.00101377
0.000889715
0.000883848
0.000883901
0.000883895
0.00319
0.000883901
0.000883833
0.000883899
0.000883901
0.000883901
0.000883901
0.000825275
0.000883901
0.722362
0.000897722
0.00100941
0.510236
0.814489
0.000896288
0.000883901
0.000883901
0.000883901
0.000883901
0.000883901
0.000883901
0.000883901
0.000883901
0.0905217
0.00089966
0.000883901
0.000883973
0.000883901
0.000883901
0.000883901
0.000883901
0.00102873
0.22897
0.000883901
0.000883901
0.000883901
0.712226
0.129791
0.000883901
0.000883897
0.754258
0.0359819
0.000883901
0.000883901
0.00103945
0.806782
0.000883901
0.000883901
0.000883901
0.000883901
0.000883874
0.000883901
0.534444
0.000883901
0.000883901
0.000883901
0.000883901
0.000883901
0.000919851
0.000883901
0.000883901
0.00158387
0.160127
0.64878
0.000883901
0.00088388
0.00102497
0.000883901
0.000883901
0.000883901
0.936278
0.000883882
0.000883901
0.00089296
0.000883895
0.000883901
0.000883901
0.000883894
0.000883901
0.000883901
0.000883901
0.000883901
0.000883606
0.000883901
0.000883901
0.000883899
0.000945626
0.000890675
0.000888648
0.000883886
0.000883901
0.000883717
0.511615
0.000883901
0.890985
0.413174
0.000883887
0.000883897
0.000883893
0.000883892
0.000883901
0.0860057
0.656106
0.000883901
0.000883901
0.000883901
0.000883901
0.000883901
0.000883901
0.000883901
0.000883901
0.231431
0.000883901
0.000883901
0.000910283
0.000883901
0.000883893
0.000883728
0.139346
0.000883902
0.0008839
0.000883901
0.219711
0.000883699
0.658053
0.000883901
0.000883901
0.000883901
0.00273314
0.000883828
0.000896177
0.000883901
0.00118044
0.000883901
0.000926312
0.000883901
0.000883901
0.19722
0.000901736
0.000883901
0.000953761
0.000883901
0.000883901
0.16317
0.000999188
0.000883874
0.000883901
0.000883901
0.000883901
0.000883901
0.000883901
0.0008839
0.00088389
0.000883901
0.000883901
0.00088387
0.000883901
0.000883901
0.000712689
0.000883901
0.000883883
0.000883878
0.000883901
0.000883901
0.000883872
0.000883893
0.000883888
0.000975201
0.000883901
0.000883734
0.196199
0.000903386
0.000883847
0.0008839
0.851481
0.000883901
0.000883901
0.000883901
0.153829
0.000895991
0.000883901
0.00374009
0.643476
0.000883893
0.00293269
0.000883901
0.0726111
0.313345
0.000883896
0.000883901
0.000883901
0.000883879
0.000883901
0.000883901
0.20851
0.000883901
0.000883731
0.000883893
0.000897856
0.00088874
0.000883901
0.000883901
0.000883888
0.33619
0.000883901
0.000883901
0.000883901
0.241514
0.000883901
0.278973
0.00859558
0.000883901
0.253773
0.331584
0.00129367
0.000883887
0.000883871
0.123289
0.000883901
0.775912
0.000883882
0.000883897
0.000893768
0.000883901
0.000883881
0.000883901
0.0008839
0.000896017
0.000883899
0.672697
0.000883896
0.000896484
0.819209
0.188221
0.000883901
0.000883872
0.000897863
0.825209
0.254328
0.000883901
0.000883899
0.326511
0.000883876
0.00089813
0.000883901
0.81701
0.000883901
0.000894376
0.0515911
0.000896365
0.000883901
0.65594
0.00200275
0.000883901
0.000883702
0.000883901
0.000883901
0.000883901
0.000883901
0.200944
0.00089562
0.000883901
0.174018
0.517662
0.000883901
0.000883901
0.00778922
0.000883901
0.000883901
0.000883901
0.00088388
0.000883891
0.000883901
0.000883795
0.000883901
0.268466
0.307884
0.0008839
0.674835
0.371067
0.000916248
0.000904873
0.0008839
0.367122
0.000883856
0.0428775
0.000883795
0.000883428
0.000898855
0.000883885
0.000883901
0.000883729
0.000883891
0.648751
0.000883901
0.000883895
0.000883901
0.000898275
0.000888891
0.162398
0.139446
0.000898127
0.000883901
0.000883797
0.614264
0.000883901
0.000883901
0.375128
0.00137893
0.000883901
0.869942
0.000883901
0.000883896
0.000883895
0.874932
0.000883901
0.000883901
0.000883892
0.00104294
0.000897063
0.000883901
0.000895693
0.000883901
0.000883901
0.122961
0.000883901
0.69776
0.621822
0.000883901
0.00100086
0.000883901
0.213561
0.00116239
0.000883901
0.000901746
0.00103691
0.000883901
0.000883901
0.000883901
0.190639
0.000883901
0.000883901
0.000883901
0.000900084
0.000883901
0.000883901
0.000883901
0.000883901
0.000883901
0.000883901
0.000883901
0.000883901
0.000883901
0.000883901
0.000883901
0.000883886
0.000883901
0.000883901
0.000883658
0.0008839
0.000883901
0.000883901
0.0008839
0.000883901
0.000899063
0.000883896
0.000883901
0.000883901
0.000883901
0.0008839
0.00172612
0.0397468
0.000899143
0.565305
0.00088385
0.000883901
0.000883901
0.000883796
0.000883839
0.000897493
0.87796
0.000883901
0.000883901
0.000995236
0.00089774
0.000883836
0.000895541
0.00090138
0.000893864
0.000883901
0.000883823
0.000883901
0.000883901
0.000896247
0.000883827
0.2978
0.51797
0.000883849
0.000896432
0.000895384
0.000903967
0.000883901
0.00088387
0.000883881
0.000895908
0.00105741
0.000883901
0.000883225
0.000883901
0.000883899
0.000883901
0.000883912
0.000883901
0.000883854
0.000883901
0.000883901
0.000898187
0.000883895
0.236266
0.0008839
0.000883901
0.000883901
0.000883881
0.000883901
0.000883901
0.0451008
0.000883901
0.000883892
0.000883901
0.000883901
0.000883901
0.000883901
0.000883901
0.000883901
0.000883888
0.000883901
0.000883913
0.283937
0.000883901
0.000883901
0.000883901
0.000883901
0.000883901
0.000883901
0.000883877
0.000883901
0.000883901
0.000883901
0.000897408
0.536874
0.000883901
0.000883901
0.000883901
0.000883768
0.000883901
0.000883901
0.000883901
0.000883901
0.000883901
0.798807
0.000883901
0.000883901
0.000883901
0.000883685
0.000883901
0.000883901
0.000883901
0.789496
0.000883901
0.000883901
0.000883898
0.000883901
0.0008839
0.000883901
0.000883894
0.000883901
0.000883901
0.000883901
0.000931614
0.000883888
0.000883901
0.000883821
0.000883818
0.000883829
0.000883901
0.000883793
0.000883899
0.000895428
0.000883901
0.000883805
0.000883848
0.000883901
0.000883901
0.000883901
0.000883901
0.000883851
0.00088387
0.000883901
0.000883901
0.000883901
0.000883901
0.000883901
0.0886436
0.000883901
0.000883742
0.000883824
0.000883901
0.0008839
0.27198
0.000883901
0.0008839
0.000883901
0.000883901
0.642268
0.000883901
0.000883828
0.000883901
0.0008839
0.000883901
0.846487
0.000895934
0.000883901
0.000883901
0.000883901
0.000883901
0.0008839
0.000883901
0.000883877
0.000883901
0.000883898
0.000883898
0.000897425
0.000883901
0.345279
0.878236
0.000883901
0.0727406
0.0834543
0.000896289
0.000883901
0.000883901
0.755117
0.000883891
0.00358595
0.0969463
0.000883901
0.000883901
0.000903098
0.000883901
0.000883894
0.000883901
0.000883901
0.00089836
0.000924234
0.000883901
0.000883901
0.00088402
0.000883901
0.000883901
0.000883901
0.000883901
0.383911
0.804487
0.000883881
0.000883901
0.000883901
0.000883901
0.000883733
0.000883899
0.0856425
0.000883752
0.000897997
0.000883901
0.000883901
0.000883901
0.000883901
0.00088375
0.000883799
0.000883901
0.000883901
0.000883901
0.000883901
0.669281
0.000883901
0.74948
0.000883901
0.78465
0.000898523
0.000883895
0.000883901
0.000883901
0.000883901
0.000883901
0.000883901
0.000883901
0.000883901
0.644122
0.000883901
0.000883898
0.236232
0.000883898
0.000883901
0.000883901
0.000883901
0.000883901
0.0008839
0.0008838
0.000883901
0.000883901
0.000883901
0.824974
0.000883898
0.00088373
0.000883704
0.000883827
0.71165
0.000895945
0.000750899
0.000883901
0.629499
0.000883901
0.000883901
0.000898578
0.211966
0.104974
0.0009015
0.000883901
0.709047
0.00103769
0.000883901
0.000883901
0.000883901
0.000883901
0.000883901
0.000883901
0.000895176
0.0491474
0.000883901
0.000883881
0.000998011
0.000883901
0.000883901
0.000883901
0.000883901
0.000883901
0.000883901
0.000883901
0.000898669
0.000883896
0.000883901
0.000883899
0.00103637
0.000883901
0.000883898
0.758018
0.000883901
0.000897781
0.000883897
0.0008839
0.000897887
0.000899438
0.000883894
0.934324
0.000883901
0.000883865
0.000883901
0.000883901
0.000883897
0.000883901
0.000883901
0.000883901
0.000883901
0.000883918
0.000883901
0.000883901
0.000883881
0.000883901
0.000883901
0.000883901
0.000883901
0.000883901
0.854126
0.000883901
0.000883899
0.000883901
0.000883901
0.000883901
0.000883901
0.00386413
0.000883901
0.000883901
0.56519
0.0008839
0.000883901
0.000883901
0.0008839
0.000909499
0.0749788
0.0008839
0.000883901
0.000883832
0.000883901
0.000883901
0.000883901
0.00142057
0.000883901
0.000883901
0.000883901
0.000883934
0.000895314
0.000883901
0.000898081
0.000883901
0.868575
0.000895834
0.000883901
0.000883897
0.000883901
0.000883901
0.000883901
0.000883901
0.000883901
0.000883901
0.00089941
0.000883901
0.000883901
0.000883901
0.868716
0.000883883
0.000883901
0.000883901
0.000901351
0.000883901
0.000976382
0.621287
0.00104921
0.000883901
0.000883901
0.000899163
0.000883901
0.000883901
0.000883901
0.00101013
0.547458
0.000898629
0.689673
1.00336
0.000883901
0.000883901
1.0983
0.000883901
0.000883901
0.100957
0.000895988
0.000883901
0.000883901
0.000883901
0.000883901
0.000883901
0.000883901
0.000883901
0.000883901
0.866175
0.000883901
0.000883901
0.000883901
0.000883901
0.000883901
0.322017
0.333432
0.000899255
0.000883901
0.000896796
0.000902945
0.000883901
0.000883901
0.000883901
0.000883886
0.6841
0.00412627
0.000883901
0.000883696
0.000883901
0.000883901
0.306853
0.575083
0.000883901
0.000883901
0.000883901
0.000883901
0.000883901
0.000883901
0.000883901
0.000883901
0.000883899
0.0447147
0.972977
0.000883901
0.000883901
0.000883734
0.000883901
0.000883866
0.000883901
0.000896227
0.000883901
0.000883901
0.000883901
0.000875396
0.157892
0.000883901
0.000883901
0.000883901
0.000883901
0.000883902
0.000883901
1.13525
0.000895297
0.000883884
0.607953
0.000883901
0.000883873
0.000883901
0.000883901
0.000883901
0.000883901
0.000883901
0.000883901
0.817172
0.000883901
0.000923256
0.000883901
0.000883901
0.000883901
0.00355791
0.000883901
0.000883901
0.165868
0.802509
0.000883901
0.000883901
0.000883901
0.000883901
0.000883906
0.000883901
0.80096
0.000883901
0.000883901
0.000883901
0.000883885
0.000883901
0.000883901
0.000883901
0.0008839
0.000883901
0.000883901
0.000883781
0.000883901
0.000883901
0.000893678
0.000883901
0.000883901
0.000883901
0.000883901
0.000883901
0.000911046
0.000883901
0.000883901
0.000883889
0.000883871
0.0949705
0.000883901
0.000883901
0.00429655
0.000883901
0.000883901
0.00099659
0.000883901
0.0396937
0.0394683
0.00102044
0.753981
0.000883901
0.000883901
0.000883901
0.000883901
0.000883901
0.671639
0.000883901
0.643622
0.000883901
0.000879309
0.000915105
0.000883901
0.000883729
0.000883901
0.000883901
0.000883901
0.00399679
0.938209
0.000883901
0.206958
0.000883901
0.000883901
0.000883901
0.000883901
0.000883901
0.000883901
0.000883781
0.692404
0.000883901
0.000883901
0.000883901
0.000883901
0.000883817
0.000883901
0.000883876
0.000883901
0.000883901
0.000883901
0.000895704
0.000883901
0.000883858
0.000883638
0.000883901
0.000883901
0.000883901
0.000883891
0.000883901
0.000883901
0.000883901
0.00106695
0.000883901
0.000883901
0.000883901
0.000883899
0.000883868
0.00105444
0.00088372
0.000883895
0.000883835
0.000883901
0.000883901
0.000883901
0.000883879
0.000883901
0.000883901
0.00088389
0.000890686
0.00196939
0.000883901
0.000883901
0.726833
0.667443
0.00088364
0.000883901
0.000883901
0.00100322
0.00732546
0.000906809
0.000883874
0.00524923
0.000883901
0.000883901
0.000883852
0.000883901
0.000883901
0.000896745
0.000883877
0.000883903
0.000883879
0.747646
0.000883862
0.000883901
0.0012184
0.000883871
0.000883901
0.000883901
0.000883854
0.000883901
0.000883901
0.000883901
0.000883901
0.000883901
0.000883902
0.000883901
0.147651
0.000883901
0.000883901
0.000883901
0.000883901
0.000893608
0.00102837
0.000883901
0.000883901
0.000883901
0.000883913
0.000883791
0.000883901
0.000883901
0.000883901
0.000883901
0.0008839
0.000883901
0.000883901
0.000883787
0.000883901
0.000964784
0.000883901
0.000883892
0.000883901
0.000883896
0.000883897
0.000883881
0.000883901
0.000883901
0.000883896
0.000883901
0.000883901
0.000883901
0.000883901
0.000883901
0.0008839
0.000883895
0.000883826
0.000883888
0.000883205
0.000896791
0.000883072
0.000897136
0.000901097
0.000883901
0.000883901
0.000896991
0.000883901
0.000894913
0.000883901
0.000883901
0.000883901
0.000895888
0.000883901
0.0008839
0.00090013
0.000883901
0.000883901
0.000883901
0.000883901
0.000883901
0.000883901
0.524016
0.000883901
0.000883901
0.000883883
0.000883901
0.000883842
0.000883805
0.70154
0.000883856
0.689947
0.000883785
0.762787
0.000883901
0.000883901
0.000883901
0.612015
0.000883901
0.000883891
0.000883901
0.000883901
0.000883901
0.000883901
0.000883901
0.000883901
0.000883901
0.000883901
0.000883901
0.80654
0.000883901
0.000883901
0.000883842
0.000883901
0.000883901
0.00088383
0.583014
0.000883901
0.000883901
0.000883901
0.996801
0.000884051
0.000883884
0.000883746
0.000883876
0.000883901
0.000883901
0.000883901
0.000883901
0.000883901
0.000883901
0.0008955
0.000883901
0.000883901
0.000883901
0.000883901
0.000883901
0.000883901
0.000883901
0.000883901
0.00088389
0.000883913
0.000883881
0.000910668
0.00265291
0.000883901
0.000883901
0.000883868
0.000883901
0.000883901
0.000883851
0.0008976
0.000883901
0.000883901
0.000899727
0.231288
0.096735
0.000883901
0.000883901
0.000896756
0.000883867
0.000883901
0.000883901
0.000883901
0.000883909
0.000883872
0.0008839
0.000902924
0.000883901
0.000883901
0.000883901
0.000883901
0.000883901
0.000883901
0.000883901
0.000883901
0.000883901
0.000883901
0.000883901
0.000883901
0.000883901
0.000883897
0.000883901
0.00103733
0.000883895
0.000883863
0.000883892
0.698952
0.755731
0.0008839
0.000883897
0.000883901
0.000883901
0.000883901
0.187002
0.355688
0.597977
0.0008839
0.000883862
0.000968236
0.000883896
0.000883886
0.000896357
0.000883903
0.0008839
0.000883839
0.000884004
0.000883891
0.000883901
0.000883901
0.000883901
0.000883901
0.644154
0.000883894
0.000909736
0.000883894
0.0008839
0.000883901
0.000883901
0.000883901
0.000883893
0.000883901
0.000883901
0.000883901
1.00536
0.000883901
0.000883901
0.000883901
0.000883901
0.000883901
0.000883901
0.000883901
0.706782
0.000883901
0.000883901
0.000883901
0.000883856
0.000883901
0.0008839
0.0008839
0.000883901
0.000883893
0.000883901
0.000883901
0.000883901
0.0008839
0.0738563
0.237089
0.000883901
0.000883898
0.000883901
0.000883901
0.000883895
1.19928
0.00100638
0.000880048
0.918829
0.000883901
0.000883887
0.000883901
0.000883901
0.000883901
0.000883901
0.000883901
0.0200385
0.000883901
0.340828
0.000883894
0.000883901
0.000883901
0.000893151
0.000883901
0.816204
0.000883901
0.000912735
0.000883901
0.000883901
0.000883888
0.000883901
0.000883901
0.000883727
0.000883901
0.000883901
0.000883901
0.000883713
0.000883894
0.000883901
0.000923515
0.000883901
0.000883901
0.000883901
0.000883901
0.000883901
0.000883901
0.000883901
0.000883901
0.000883901
0.000883901
0.000912685
0.000883901
0.000883901
0.000883901
0.000900636
0.000898395
0.220001
0.00088383
0.000883901
0.000883901
0.000883901
0.000937642
0.000883825
0.000883901
0.000883901
0.000882999
0.000883862
0.000883898
0.212485
0.000883894
0.000883901
0.60238
0.625722
0.0008839
0.000883901
0.000883901
0.000883901
0.826778
0.000883901
0.000883834
0.000883901
0.000883901
0.062731
0.00941927
0.000883901
0.000883821
0.000883728
0.000883901
0.000883901
0.000897849
0.000883901
0.000928635
0.000895696
0.000894904
0.000898762
0.000883901
0.000883901
0.00103115
0.000913912
0.000883901
0.000883901
0.000883901
0.000883901
0.000883901
0.000883901
0.659895
0.0622804
0.275869
0.000883901
0.000883901
0.000883901
0.000883901
0.000883901
0.000883901
0.000883901
0.0008839
0.00103987
0.000883901
0.535897
0.655931
0.000883901
0.000883901
0.000883901
0.000883782
0.000883901
0.0008839
0.000883899
0.798472
0.000883901
0.000883901
0.000883901
0.000883901
0.000883901
0.000953969
0.000883901
0.000883901
0.0466907
0.00088388
0.000883901
0.337144
0.000883901
0.000883899
0.000883901
0.000883901
1.26928
0.000883901
0.000883901
0.000883901
0.000883901
0.000883901
0.000883901
0.000900172
0.000883901
0.000883901
0.000883901
0.000883896
0.000883901
0.000883901
0.000883901
0.000883901
0.000900725
0.588858
0.334037
0.0008839
0.0008839
0.000895259
0.000883901
0.000900834
0.878325
0.000883895
0.000898101
0.341573
0.000883901
0.000895591
0.000883898
0.000883901
0.00107108
0.165566
0.000883899
0.000897919
0.000895218
0.44679
0.000883901
0.000883901
0.0008839
0.000883803
0.0008839
0.000883901
0.000932124
0.000883901
0.000883901
0.000898574
0.216307
0.00370651
0.000883901
0.4577
0.000883901
0.45744
0.000883901
0.000883901
1.05665
0.000883901
0.000900649
0.000883886
0.000883895
0.000899637
0.000883848
0.000883901
0.00106132
0.000883901
0.787999
0.00103523
0.0008839
0.000883901
0.000883901
0.225262
0.000883873
0.000883894
0.000883901
0.000883901
0.000883848
0.000883901
0.000883901
0.000883883
0.000883886
0.000895216
0.000883901
0.000883901
0.000883901
0.782635
0.000883901
0.000883901
0.000883901
0.194646
0.000883901
0.000883901
0.000883899
0.000897264
0.000883901
0.000883901
0.000883853
0.000883875
0.000883901
0.000883901
0.912552
0.00098078
0.000883901
0.386668
0.000894812
0.000895666
0.000786223
0.000883901
0.000883899
0.000896248
0.000883901
0.000883901
0.000883896
0.0008839
0.121155
0.000883901
0.000883748
0.191346
0.000883902
0.508747
0.0008839
0.000883898
0.0008839
0.000883862
0.506388
0.000883884
0.707334
0.000883901
0.000883901
0.729535
0.000883901
0.000883901
0.669098
0.209816
0.000883901
0.000883901
0.000883901
0.000883901
0.000898807
0.663159
0.000883901
0.0771292
0.000883901
0.000883901
0.218637
0.833235
0.000883882
0.000883901
1.00081
0.000883633
0.000928708
0.000883872
0.000883901
0.000883901
0.000883901
0.000883901
0.000896051
0.00090102
0.000883901
0.000883901
0.000883884
0.00107812
0.000898649
0.00088371
0.664619
0.000883615
0.000895451
0.000883921
0.000883901
0.000883876
0.000895135
0.670895
0.000883901
0.000883901
0.000956086
0.000883901
0.000883901
0.000883901
0.000883901
0.000883901
0.000895961
0.660849
0.0008839
0.000883901
0.000883539
0.00088357
0.000895802
0.000883901
0.000883901
0.000883901
0.000883901
0.202562
0.000883901
0.927281
0.924275
0.000883901
0.000883901
0.000883782
0.000883666
1.27002
0.820754
0.000883901
0.000899877
0.763351
0.000883901
0.000883901
0.000883901
0.000883638
0.000883901
0.000883901
0.000883901
0.000883901
0.000897781
0.000883901
0.000883901