/*--------------------------------*- C++ -*----------------------------------*\
| =========                 |                                                 |
| \\      /  F ield         | OpenFOAM: The Open Source CFD Toolbox           |
|  \\    /   O peration     | Version:  2312                                  |
|   \\  /    A nd           | Website:  www.openfoam.com                      |
|    \\/     M anipulation  |                                                 |
\*---------------------------------------------------------------------------*/
FoamFile
{
    version     2.0;
    format      ascii;
    arch        "LSB;label=32;scalar=64";
    class       volScalarField;
    location    "0.05";
    object      nut;
}
// * * * * * * * * * * * * * * * * * * * * * * * * * * * * * * * * * * * * * //

dimensions      [0 2 -1 0 0 0 0];

internalField   nonuniform List<scalar> 
32842
(
0.000638029
0.000638029
0.000638029
0.000638029
0.000647622
0.000638029
0.00693854
0.00712498
0.000638029
0.000638029
0.0813246
0.091989
0.000638029
0.000638029
0.000637982
0.000638029
0.000638029
0.000638029
0.000638029
0.000647337
0.000648784
0.000648129
0.000647055
0.000638029
0.000646722
0.000638029
0.000638029
0.000644103
0.278255
0.000638029
0.100763
0.480489
0.00301581
0.000638029
0.00081038
0.00192401
0.000646855
0.000638029
0.000638029
0.000638029
0.000638029
0.000648654
0.000638029
0.000638029
0.344371
0.000638029
0.000713059
0.000638029
0.000648216
0.00194781
0.00196108
0.000638029
0.595807
0.000749603
0.000638029
0.000638033
0.000638029
0.000721038
0.000638029
0.000638029
0.00803223
0.573133
0.638191
0.000648682
0.000638029
0.000637781
0.000638029
0.701246
0.443916
0.000638029
0.000643704
0.000695901
0.504789
0.000638029
0.000638029
0.000638029
0.23677
0.000638029
0.503224
0.000758366
0.000647514
0.000638029
0.000638029
0.558794
0.78034
0.000638029
0.000638029
0.00063803
0.15479
0.000638029
0.000647662
0.000648228
0.000638016
0.000638023
0.000638029
0.000638029
0.489497
0.000638025
0.724424
0.000638029
0.000638029
0.000649629
0.000638029
0.0789782
0.500671
0.459512
0.169862
0.000638029
0.537136
0.000638029
0.000638029
0.000638029
0.000637825
0.000638029
0.000638029
0.000648389
0.547855
0.141752
0.000638029
0.000638029
0.000638029
0.000638029
0.00523666
0.000638029
0.000638029
0.497997
0.402857
0.000638029
0.000638005
0.000638029
0.000638029
0.000638028
0.000649952
0.504516
0.000648965
0.000638029
0.000638028
0.0606304
0.000638029
0.000638029
0.537254
0.000638029
0.533253
0.000638028
0.000638029
0.000638029
4.64028e-06
0.000638029
0.000638029
0.000638029
0.000638029
0.177851
0.000645699
0.000719808
0.000638029
0.000638029
0.000638029
0.000638029
0.000638029
0.000638029
0.000638029
0.000638029
0.000646795
0.000638029
0.000638029
0.000638029
0.000638029
0.000638029
0.000638029
0.179291
0.000638028
0.000648432
0.000638026
0.000638029
0.000648944
0.000773313
0.000638029
0.000638029
0.000638029
0.000638029
0.000642363
0.000638029
0.000638029
0.000638029
0.551163
0.000638029
0.510542
0.000638029
0.000638029
0.000638029
0.000638029
0.122807
0.435519
0.000638029
0.452156
0.000638029
0.000638029
0.000638029
0.488318
0.000638029
0.000638029
0.000638029
0.106896
0.000690207
0.000637141
0.000652196
0.000638029
0.000648773
0.456899
0.000638029
0.000638029
0.000638029
0.000638025
0.00063801
0.000638029
0.000638029
0.000638029
0.000638029
0.000638029
0.000638029
0.13118
0.000638029
0.000638029
0.000638029
0.000649561
0.384546
0.000638029
0.470969
0.000638029
0.000637989
0.000638029
0.000638029
0.000638029
0.000638029
0.00063802
0.000647505
0.000647806
0.000638028
0.000638029
0.571723
0.0020047
0.000638029
0.000638029
0.000702644
0.000638029
0.000638029
0.604797
0.000638029
0.000638029
0.000638029
0.000638029
0.000638029
0.000638029
0.488607
0.000638029
0.000638029
0.000638029
0.000638021
0.000638029
0.000638029
0.000638029
0.000638029
0.000638029
0.000638029
0.374228
0.000638029
0.000638029
0.000638029
0.000638029
0.000638029
0.000638029
0.49052
0.000638029
0.379926
0.000638029
0.00073538
0.000638029
0.000648312
0.000638029
0.000638029
0.000638029
0.000638016
0.000637955
0.000638029
0.000638029
0.000638031
0.000638021
0.000638029
0.000648753
0.000638029
0.00200631
0.000638029
0.441927
0.000638016
0.179622
0.000638029
0.438683
0.000638029
0.000638029
0.000646613
0.0663171
0.000638029
0.000638029
0.000638029
0.000638029
0.000638029
0.000638029
0.000638029
0.000638029
0.577956
0.000638029
0.000638029
0.567761
0.000638029
0.000638029
0.000638029
0.000638029
0.000638121
0.000638029
0.000638029
0.000638029
0.000631769
0.000638029
0.000641387
0.000638029
0.000638029
0.000638029
0.000638029
0.000638029
0.000638029
0.000638029
0.512883
0.000638029
0.000638029
0.000638029
0.000638029
0.953956
0.445351
0.000638029
0.000638029
0.000638029
0.000638029
0.000638028
0.000638029
0.575898
0.000638029
0.000638029
0.466737
0.662205
0.52925
0.000638029
0.000638017
0.000638029
0.487845
0.000638029
0.000638029
0.000646907
0.000638029
0.000638029
0.000638029
0.000638029
0.000638029
0.000638029
0.00748471
0.000638029
0.000638029
0.000638029
0.000638029
0.000638028
0.000646304
0.000638029
0.00347538
0.000638029
0.000647662
0.000638029
0.539436
0.000647749
0.000638029
0.000638029
0.000646887
0.000638029
0.585108
0.498633
0.000638029
0.000638029
0.000638029
0.000638029
0.000638029
0.000638029
0.000638029
0.000638029
0.000638029
0.000638029
0.000638029
0.000638029
0.000638029
0.000638029
0.000638029
0.000638029
0.000638029
0.0194975
0.000638029
0.000638029
0.000638029
0.000638022
0.000638029
0.000638029
0.000649337
0.000638029
0.000646862
0.400833
0.000638029
0.000638029
0.000638029
0.000638029
0.000638029
0.000638029
0.000638029
0.000638029
0.000676793
0.000638029
0.505251
0.000638029
0.000648875
0.131181
0.000638029
0.000638029
0.000638029
0.000638029
0.000638029
0.000638029
0.000638029
0.000638029
0.511931
0.000647425
0.975233
0.000638029
0.00356489
0.000679594
0.542302
0.000648704
0.00178403
0.000647053
0.552293
0.000638029
0.000638029
0.000642391
0.000638029
0.000646027
0.000638028
0.000638029
0.000638029
0.000638029
0.000638004
0.000645457
0.000638029
0.000638029
0.000647949
0.000638029
0.000638029
0.000638029
0.000649339
0.000638029
0.000638029
0.000638029
0.000638029
0.000638029
0.556318
0.000638029
0.000638029
0.000638029
0.000649507
0.000647725
0.000638029
0.000638029
0.559184
0.520257
0.000638029
0.000638029
0.000638029
0.000638029
0.000647556
0.000638029
0.000717077
0.557882
0.000638029
0.000638029
0.710544
0.000638029
0.000638029
0.000647108
0.000638029
0.000642656
0.000638029
0.530146
0.000648859
0.42571
0.560868
0.000638028
0.000638029
0.000648226
0.000638022
0.000638029
0.525192
0.000647795
0.72157
0.000645546
0.000638029
0.000638022
0.000647731
0.000638029
0.506517
0.000638029
0.497666
0.000638029
0.000638029
0.000647532
0.000648498
0.00063802
0.00776038
0.12755
0.000690836
0.000638025
0.000638027
0.000638004
0.541443
0.000638029
0.000638029
0.000638029
0.558024
0.136388
0.64966
0.000672696
0.000638029
0.000638029
0.000645668
0.143437
0.000638029
0.103592
0.000636571
0.000638029
0.000638196
0.000638029
0.000638027
0.000638029
0.000638029
0.000638029
0.53273
0.000679256
0.000638029
0.000649579
0.000638029
0.222537
0.442379
0.000638029
0.000638029
0.000638029
0.000638029
0.00223494
0.000698307
0.000638029
0.000638029
0.000638029
0.491432
0.00208234
0.697977
0.000638029
0.000638029
0.000638029
0.000707554
0.565837
0.426058
0.163222
0.435718
0.000638029
0.000638024
0.436734
0.000638029
0.000663863
0.000638029
0.000647642
0.000638029
0.000638028
0.000647844
0.000646901
0.000638029
0.000638029
0.000638029
0.000638029
0.564443
0.000649037
0.000638029
0.000638029
0.000682044
0.000638029
0.000650674
0.162878
0.667045
0.000638028
0.000638029
0.000699859
0.145998
0.00139795
0.000638029
0.00165903
0.802906
0.000617782
0.000638029
0.00153927
0.000638029
0.000638029
0.000638029
0.000638029
0.000638029
0.00184488
0.000647926
0.000638029
0.000638029
0.000638029
0.000638029
0.000638029
0.000638029
0.000638029
0.00247987
0.690989
0.000638029
0.000638029
0.000482754
0.00217295
0.0697367
0.000638029
0.20684
0.000638029
0.000638029
0.000638029
0.000709631
0.5053
0.000638029
0.000647282
0.000638029
0.24223
0.000638029
0.000638029
0.000638029
0.000638029
0.271638
0.000638029
0.000638029
0.000711864
0.000689168
0.000638029
0.000638029
0.000638029
0.444909
0.78611
0.000638029
0.511834
0.000647345
0.000638029
0.000638029
0.000637941
0.000637812
0.000638029
0.713356
0.000638019
0.000638029
0.000638029
0.000638029
0.000638029
0.000648311
0.000647741
0.000638029
0.000638029
0.00072812
0.000638029
0.00063632
0.000638029
0.000638029
0.180835
0.000637827
0.00063809
0.000690049
0.000638029
0.000638029
0.000646224
0.000647107
0.000696315
0.0356045
0.000637707
0.000683723
0.000638029
0.000638029
0.000637795
0.000638029
0.00109935
0.000638029
0.000638029
0.622249
0.0345416
0.000638026
0.000638029
0.000638029
0.000638029
0.000638029
0.000638029
0.000638029
0.000638029
0.000638029
0.579662
0.000638029
0.000638029
0.000638029
0.908918
0.000638029
0.000638029
0.000638029
0.439482
0.000638029
0.000638029
0.000638029
0.000638029
0.000638029
0.000638029
0.000638029
0.000638029
0.000638029
0.000638029
0.000638029
0.000642148
0.000638028
0.000648169
0.000642047
0.000649276
0.000638029
0.00064793
0.00064796
0.423798
0.000638029
0.000638029
0.000645763
0.000839014
0.000638029
0.389386
0.000647008
0.000638029
0.000638029
0.000638028
0.000638029
0.000638029
0.592557
0.000638029
0.000638029
0.000638029
0.000648726
0.495076
0.000638029
0.0006472
0.000638029
0.000646106
0.000726757
0.000638003
0.000646444
0.000638029
0.66056
0.000638029
0.000638029
0.000638029
0.000638029
0.000638029
0.000638029
0.187146
0.000638029
0.000638029
0.596419
0.000647207
0.000638029
0.000638029
0.000638029
0.659129
0.000649676
0.538325
0.000638029
0.434544
0.393622
0.000647864
0.000638029
0.000645649
0.000638029
0.000649511
0.000638029
0.000638029
0.000648464
0.26018
0.486232
0.000638029
0.000637931
0.00063801
0.410971
0.000638029
0.000638029
0.000638029
0.000638029
0.000638029
0.000638029
0.000638029
0.000638029
0.000638029
0.000638029
0.000638029
0.000638029
0.488853
0.000638029
0.141246
0.000638029
0.000638029
0.000647728
0.000672892
0.000638029
0.000638029
0.000648583
0.000638029
0.000638029
0.000638029
0.0006497
0.654718
0.000638029
0.000638029
0.000638029
0.000638016
0.000638029
0.000638029
0.000638029
0.000638029
0.00266074
0.000638029
0.00289364
0.000638029
0.000638029
0.000638029
0.000638029
0.00064638
0.000638029
0.000638029
0.000638029
0.000638029
0.162424
0.000638029
0.000638029
0.530657
0.000638015
0.495802
0.000638029
0.00063791
0.000638029
0.000638029
0.671083
0.000638016
0.000638029
0.000638029
0.000638021
0.000645549
0.000638029
0.000638029
0.000638029
0.000638029
0.000638029
0.488607
0.189147
0.506234
0.000638029
0.542841
0.000638029
0.000638029
0.000638029
0.000638029
0.0006422
0.000638029
0.000638029
0.000638029
0.000638029
0.000638029
0.000638029
0.000638029
0.000638029
0.000638029
0.000662945
0.000647403
0.000638029
0.129293
0.118888
0.000638029
0.000638029
0.127771
0.000638029
0.000638029
0.000638029
0.38261
0.000638029
0.000638029
0.474657
0.000648157
0.000638029
0.000638029
0.000638029
0.000638029
0.000642117
0.129572
0.000638029
0.000638029
0.420233
0.000638029
0.000638029
0.183251
0.000638029
0.000638029
0.000638029
0.000638029
0.484042
0.000638029
0.000638029
0.000638029
0.000638029
0.000646609
0.000638029
0.419735
0.000647685
0.000637976
0.000638029
0.000638029
0.000638029
0.000638029
0.000638029
0.000638029
0.143095
0.159567
0.000645307
0.000657194
0.000638029
0.000646412
0.000638029
0.000638029
0.000638029
0.000638029
0.000638029
0.000638029
0.000638029
0.000638029
0.000638029
0.000638029
0.0250297
0.000638029
0.690465
0.000638029
0.575878
0.558971
0.000638029
0.00064682
0.564461
0.000691591
0.000637827
0.00062704
0.000638029
0.000638029
0.000638029
0.000638029
0.00370243
0.000638029
0.113152
0.002052
0.000713925
0.000779607
0.000642226
0.000638019
0.000638029
0.000638028
0.00209615
0.000638029
0.000638016
0.000638028
0.000638029
0.000638029
0.000638029
0.000624188
0.000638029
0.521425
0.000648005
0.000763517
0.368305
0.587925
0.00064697
0.000638029
0.000638029
0.000638029
0.000638029
0.000638029
0.000638029
0.000638029
0.000638029
0.0653418
0.000649404
0.000638029
0.000638097
0.000638029
0.000638029
0.000638029
0.000638029
0.000742994
0.167434
0.000638029
0.000638029
0.000638029
0.514108
0.0936875
0.000638029
0.000638028
0.544448
0.0259731
0.000638029
0.000638029
0.000750418
0.582361
0.000638029
0.000638029
0.000638029
0.000638029
0.000638024
0.000638029
0.385779
0.000638029
0.000638029
0.000638029
0.000638029
0.000638029
0.000663981
0.000638029
0.000638029
0.00121339
0.115585
0.46831
0.000638029
0.000638021
0.000740029
0.000638029
0.000638029
0.000638029
0.675836
0.000638025
0.000638029
0.000644568
0.000638028
0.000638029
0.000638029
0.000638026
0.000638029
0.000638029
0.000638029
0.000638029
0.000637976
0.000638029
0.000638029
0.000638028
0.00071511
0.000642918
0.000641455
0.000638026
0.000638029
0.000637988
0.3693
0.000638029
0.643143
0.298243
0.000638026
0.000638028
0.000638027
0.000638027
0.000638029
0.0559364
0.473599
0.000638029
0.000638029
0.000638029
0.000638029
0.000638029
0.000638029
0.000638029
0.000638029
0.174936
0.000638029
0.000638029
0.000657072
0.000638029
0.000638023
0.000638038
0.100585
0.000638029
0.000638029
0.000638029
0.165947
0.000637993
0.475004
0.000638029
0.000638029
0.000638029
0.00210271
0.000638016
0.00064689
0.000638029
0.000852098
0.000638029
0.000668653
0.000638029
0.000638029
0.150001
0.000650903
0.000638029
0.000688456
0.000638029
0.000638029
0.124848
0.000721308
0.000638024
0.000638029
0.000638029
0.000638029
0.000638029
0.000638029
0.000638029
0.000638027
0.000638029
0.000638029
0.000638023
0.000638029
0.000638029
0.000520606
0.000638029
0.000638023
0.000638023
0.000638029
0.000638029
0.000638019
0.000638027
0.000638026
0.000703941
0.000638029
0.000637999
0.141625
0.000652094
0.00063802
0.000638028
0.614627
0.000638029
0.000638029
0.000638029
0.115851
0.000646756
0.000638029
0.00283286
0.464482
0.000638028
0.00225302
0.000638029
0.0524131
0.237081
0.000638028
0.000638029
0.000638029
0.000638025
0.000638029
0.000638029
0.159892
0.000638029
0.000637998
0.000638027
0.000648102
0.000641522
0.000638029
0.000638029
0.000638026
0.242673
0.000638029
0.000638029
0.000638029
0.184305
0.000638029
0.214491
0.00650153
0.000638029
0.194386
0.251377
0.000960854
0.000638026
0.000638023
0.0791729
0.000638029
0.560079
0.000638025
0.000638028
0.000645151
0.000638029
0.000638025
0.000638029
0.000638029
0.000646774
0.000638028
0.485575
0.000638028
0.000647112
0.591332
0.140448
0.000638029
0.000638024
0.000648107
0.595663
0.191232
0.000638029
0.000638029
0.246521
0.000638024
0.0006483
0.000638029
0.589744
0.000638029
0.00064559
0.0388254
0.000647026
0.000638029
0.473479
0.00153196
0.000638029
0.000637993
0.000638029
0.000638029
0.000638029
0.000638029
0.145837
0.000646488
0.000638029
0.132695
0.373666
0.000638029
0.000638029
0.00588783
0.000638029
0.000638029
0.000638029
0.000638022
0.000638026
0.000638029
0.000638005
0.000638029
0.203431
0.231312
0.000638029
0.487118
0.283767
0.00066138
0.000653167
0.000638029
0.280807
0.000638021
0.0309513
0.00063801
0.000637944
0.000648823
0.000638024
0.000638029
0.000637984
0.000638022
0.46829
0.000638029
0.000638028
0.000638029
0.000648404
0.000641631
0.117543
0.100657
0.000648298
0.000638029
0.00063801
0.443396
0.000638029
0.000638029
0.284438
0.00103105
0.000638029
0.627952
0.000638029
0.000638028
0.000638027
0.631555
0.000638029
0.000638029
0.000638027
0.000753201
0.00064753
0.000638029
0.000646541
0.000638029
0.000638029
0.0887582
0.000638029
0.503666
0.448852
0.000638029
0.000722456
0.000638029
0.154272
0.000839142
0.000638029
0.00065091
0.000748484
0.000638029
0.000638029
0.000638029
0.14541
0.000638029
0.000638029
0.000638029
0.000649711
0.000638029
0.000638029
0.000638029
0.000638029
0.000638029
0.000638029
0.000638029
0.000638029
0.000638029
0.000638029
0.000638029
0.000638026
0.000638029
0.000638029
0.000637956
0.000638029
0.000638029
0.000638029
0.000638029
0.000638029
0.000648973
0.000638028
0.000638029
0.000638029
0.000638029
0.000638029
0.00130347
0.0286913
0.000649031
0.408055
0.000638017
0.000638029
0.000638029
0.00063801
0.000638016
0.00064784
0.63374
0.000638029
0.000638029
0.000718451
0.000648018
0.000638022
0.000646431
0.000650646
0.00064522
0.000638029
0.000638011
0.000638029
0.000638029
0.000646941
0.000638005
0.215089
0.373888
0.000638015
0.000647074
0.000646317
0.000652513
0.000638029
0.000638035
0.000638025
0.000646696
0.000763295
0.000638029
0.000637965
0.000638029
0.000638028
0.000638029
0.000638039
0.000638029
0.000638022
0.000638029
0.000638029
0.000648341
0.000638028
0.172814
0.000638029
0.000638029
0.000638029
0.000638025
0.000638029
0.000638029
0.0325594
0.000638029
0.000638027
0.000638029
0.000638029
0.000638029
0.000638029
0.000638029
0.000638029
0.000638026
0.000638029
0.000638038
0.204955
0.000638029
0.000638029
0.000638029
0.000638029
0.000638029
0.000638029
0.000638024
0.000638029
0.000638029
0.000638029
0.000647779
0.387533
0.000638029
0.000638029
0.000638029
0.000637969
0.000638029
0.000638029
0.000638029
0.000638029
0.000638029
0.576605
0.000638029
0.000638029
0.000638029
0.000637923
0.000638029
0.000638029
0.000638029
0.569884
0.000638029
0.000638029
0.000638028
0.000638029
0.000638029
0.000638029
0.000638027
0.000638029
0.000638029
0.000638029
0.000672472
0.000638028
0.000638029
0.000638014
0.000638012
0.000638013
0.000638029
0.000638007
0.000638028
0.000646349
0.000638029
0.000638009
0.000638016
0.000638029
0.000638029
0.000638029
0.000638029
0.00063802
0.000638023
0.000638029
0.000638029
0.000638029
0.000638029
0.000638029
0.0640362
0.000638029
0.000637975
0.000638015
0.000638029
0.000638029
0.196324
0.000638029
0.000638028
0.000638029
0.000638029
0.46361
0.000638029
0.000638016
0.000638029
0.000638029
0.000638029
0.611022
0.000646715
0.000638029
0.000638029
0.000638029
0.000638029
0.000638029
0.000638029
0.000638024
0.000638029
0.000638028
0.000638028
0.000647791
0.000638029
0.258246
0.63394
0.000638029
0.0525069
0.0602402
0.000646971
0.000638029
0.000638029
0.545068
0.000638027
0.00276465
0.0699792
0.000638029
0.000638029
0.000651886
0.000638029
0.000638027
0.000638029
0.000638029
0.000648466
0.000667143
0.000638029
0.000638029
0.000638129
0.000638029
0.000638029
0.000638029
0.000638029
0.293624
0.580705
0.000638025
0.000638029
0.000638029
0.000638029
0.000637999
0.000638028
0.0618454
0.000638019
0.000648204
0.000638029
0.000638029
0.000638029
0.000638029
0.000637978
0.00063801
0.000638029
0.000638029
0.000638029
0.000638029
0.483109
0.000638029
0.540999
0.000638029
0.566386
0.000648584
0.000638027
0.000638029
0.000638029
0.000638029
0.000638029
0.000638029
0.000638029
0.000638029
0.464948
0.000638029
0.000638028
0.170521
0.000638028
0.000638029
0.000638029
0.000638029
0.000638029
0.000638029
0.000637995
0.000638029
0.000638029
0.000638029
0.595493
0.00063803
0.000637931
0.000637993
0.000638006
0.513692
0.000646722
0.000485814
0.000638029
0.454393
0.000638029
0.000638029
0.000648623
0.153004
0.0758066
0.000650733
0.000638029
0.511813
0.000749116
0.000638029
0.000638029
0.000638029
0.000638029
0.000638029
0.000638029
0.000646168
0.0354841
0.000638029
0.000638025
0.000720619
0.000638029
0.000638029
0.000638029
0.000638029
0.000638029
0.000638029
0.000638029
0.000648689
0.000638028
0.000638029
0.000638028
0.000748094
0.000638029
0.000638028
0.547162
0.000638029
0.000648048
0.000638028
0.000638029
0.000648124
0.000649244
0.000638027
0.674426
0.000638029
0.000638023
0.000638029
0.000638029
0.000638028
0.000638029
0.000638029
0.000638029
0.000638029
0.000638052
0.000638029
0.000638029
0.000638014
0.000638029
0.000638029
0.000638029
0.000638029
0.000638029
0.616536
0.000638029
0.000638028
0.000638029
0.000638029
0.000638029
0.000638029
0.00294179
0.000638029
0.000638029
0.407973
0.000638029
0.000638029
0.000638029
0.000638028
0.000656506
0.0541236
0.000638028
0.000638029
0.000638016
0.000638029
0.000638029
0.000638029
0.00107769
0.000638029
0.000638029
0.000638029
0.000638057
0.000646267
0.000638029
0.000648264
0.000638029
0.626966
0.000646642
0.000638029
0.000638028
0.000638029
0.000638029
0.000638029
0.000638029
0.000638029
0.000638029
0.000649224
0.000638029
0.000638029
0.000638029
0.627067
0.000638025
0.000638029
0.000638029
0.000650625
0.000638029
0.000716297
0.448465
0.000757359
0.000638029
0.000638029
0.000649046
0.000638029
0.000638029
0.000638029
0.000729155
0.395173
0.00064866
0.497828
0.724262
0.000638029
0.000638029
0.792791
0.000638029
0.000638029
0.0728742
0.000646753
0.000638029
0.000638029
0.000638029
0.000638029
0.000638029
0.000638029
0.000638029
0.000638029
0.625233
0.000638029
0.000638029
0.000638029
0.000638029
0.000638029
0.243059
0.255889
0.000649112
0.000638029
0.000647337
0.000651776
0.000638029
0.000638029
0.000638029
0.000638032
0.493806
0.00311357
0.000638029
0.000637932
0.000638029
0.000638029
0.221497
0.415114
0.000638029
0.000638029
0.000638029
0.000638029
0.000638029
0.000638029
0.000638029
0.000638029
0.000638028
0.0322768
0.702327
0.000638029
0.000638029
0.00063799
0.000638029
0.000638023
0.000638029
0.000646926
0.000638029
0.000638029
0.000638029
0.000636499
0.113971
0.000638029
0.000638029
0.000638029
0.000638029
0.000638029
0.000638029
0.819458
0.000646255
0.000638026
0.43884
0.000638029
0.000638024
0.000638029
0.000638029
0.000638029
0.000638029
0.000638029
0.000638029
0.589861
0.000638029
0.000666437
0.000638029
0.000638029
0.000638029
0.00267444
0.000638029
0.000638029
0.119764
0.579277
0.000638029
0.000638029
0.000638029
0.000638029
0.000638033
0.000638029
0.578159
0.000638029
0.000638029
0.00063803
0.000638026
0.000638029
0.000638029
0.000638029
0.000638029
0.000638029
0.000638029
0.000638007
0.000638029
0.000638029
0.000645086
0.000638029
0.000638029
0.000638029
0.000638029
0.000638029
0.000657623
0.000638029
0.000638029
0.000638027
0.000638018
0.0615801
0.000638029
0.000638029
0.00327092
0.000638029
0.000638029
0.000719597
0.000638029
0.0286598
0.0284959
0.000736761
0.544249
0.000638029
0.000638029
0.000638029
0.000638029
0.000638029
0.484811
0.000638029
0.464587
0.000638029
0.000637266
0.000660553
0.000638029
0.000638022
0.000638029
0.000638029
0.000638029
0.00301884
0.67723
0.000638029
0.156766
0.000638029
0.000638029
0.000638029
0.000638029
0.000638029
0.000638029
0.000638007
0.4998
0.000638029
0.000638029
0.000638029
0.000638029
0.000638014
0.000638029
0.000638018
0.000638029
0.000638029
0.000638029
0.000646548
0.000638029
0.000638021
0.000637982
0.000638029
0.000638029
0.000638029
0.000638027
0.000638029
0.000638029
0.000638029
0.000770165
0.000638029
0.000638029
0.000638029
0.000638028
0.000638023
0.000761141
0.000637996
0.000638028
0.000638016
0.000638029
0.000638029
0.000638029
0.000638025
0.000638029
0.000638029
0.000638027
0.000642927
0.00149064
0.000638029
0.000638029
0.524652
0.481782
0.000637963
0.000638029
0.000638029
0.00072418
0.00554628
0.000654565
0.000638024
0.00399483
0.000638029
0.000638029
0.000638015
0.000638029
0.000638029
0.0006473
0.000638024
0.00063803
0.000638046
0.539676
0.000638022
0.000638029
0.000898066
0.000638015
0.000638029
0.000638029
0.00063802
0.000638029
0.000638029
0.000638029
0.000638029
0.000638029
0.00063803
0.000638029
0.1106
0.000638029
0.000638029
0.000638029
0.000638029
0.000645035
0.000782786
0.000638029
0.000638029
0.000638029
0.000638039
0.000638009
0.000638029
0.000638029
0.000638029
0.000638029
0.000638029
0.000638029
0.000638029
0.000638008
0.000638029
0.000697065
0.000638029
0.000638027
0.000638029
0.000638028
0.000638028
0.000638024
0.000638029
0.000638029
0.000638028
0.000638029
0.000638029
0.000638029
0.000638029
0.000638029
0.000638029
0.000638027
0.000637993
0.000638024
0.000637904
0.000647333
0.000637843
0.000647582
0.000650441
0.000638029
0.000638029
0.000647478
0.000638029
0.000645978
0.000638029
0.000638029
0.000638029
0.000646682
0.000638029
0.000638028
0.000649744
0.000638029
0.000638029
0.000638029
0.000638029
0.000638029
0.000638029
0.378252
0.000638029
0.000638029
0.000638023
0.000638029
0.000638018
0.000638003
0.506394
0.000638021
0.498026
0.000638001
0.550605
0.000638029
0.000638029
0.000638029
0.441772
0.000638029
0.000638069
0.000638029
0.000638029
0.000638029
0.000638029
0.000638029
0.000638029
0.000638029
0.000638029
0.000638029
0.582187
0.000638029
0.000638029
0.000638017
0.000638029
0.000638029
0.00063802
0.420839
0.000638029
0.000638029
0.000638029
0.719524
0.000638149
0.000638026
0.000638001
0.000638024
0.000638029
0.000638029
0.000638029
0.000638029
0.000638029
0.000638029
0.000646401
0.000638029
0.000638029
0.000638029
0.000638029
0.000638029
0.000638029
0.000638029
0.000638029
0.000638025
0.000638044
0.000638025
0.000657351
0.00204329
0.000638029
0.000638029
0.000638023
0.000638029
0.000638029
0.000638008
0.000647917
0.000638029
0.000638029
0.000649452
0.175086
0.0698268
0.000638029
0.000638029
0.000647308
0.000638024
0.000638029
0.000638029
0.000638029
0.000638036
0.000638023
0.000638029
0.00065176
0.000638029
0.000638029
0.000638029
0.000638029
0.000638029
0.000638029
0.000638029
0.000638029
0.000638029
0.000638029
0.000638029
0.000638029
0.000638029
0.000638028
0.000638029
0.000748778
0.000638028
0.000638024
0.000638027
0.504527
0.545511
0.00063803
0.000638028
0.000638029
0.000638029
0.000638029
0.134985
0.256747
0.43164
0.000638028
0.000638022
0.00069903
0.000638028
0.000638026
0.00064702
0.00063803
0.000638029
0.000638018
0.000638106
0.000638027
0.000638029
0.000638029
0.000638029
0.000638029
0.464972
0.000638028
0.000656677
0.000638027
0.000638029
0.000638029
0.000638029
0.000638029
0.000638027
0.000638029
0.000638029
0.000638029
0.725701
0.000638029
0.000638029
0.000638029
0.000638029
0.000638029
0.000638029
0.000638029
0.510179
0.000638029
0.000638029
0.000638029
0.000638021
0.000638029
0.000638029
0.000638029
0.000638029
0.000638027
0.000638029
0.000638029
0.000638029
0.000638029
0.0533133
0.171139
0.000638029
0.000638028
0.000638029
0.000638029
0.000638029
0.865678
0.000726584
0.000637363
0.663241
0.000638029
0.000638026
0.000638029
0.000638029
0.000638029
0.000638029
0.000638029
0.014465
0.000638029
0.252234
0.000638027
0.000638029
0.000638029
0.000644706
0.000638029
0.589163
0.000638029
0.000658842
0.000638029
0.000638029
0.000638026
0.000638029
0.000638029
0.000637998
0.000638029
0.000638029
0.000638029
0.000637995
0.000638027
0.000638029
0.000666626
0.000638029
0.000638029
0.000638029
0.000638029
0.000638029
0.000638029
0.000638029
0.000638029
0.000638029
0.000638029
0.000658807
0.000638029
0.000638029
0.000638029
0.000650109
0.000648491
0.167517
0.000638016
0.000638029
0.000638029
0.000638029
0.00067683
0.000638015
0.000638029
0.000638029
0.000637867
0.000638022
0.000638028
0.153534
0.000638027
0.000638029
0.434817
0.451667
0.000638029
0.000638029
0.000638029
0.000638029
0.596796
0.000638029
0.000638017
0.000638029
0.000638029
0.0452919
0.00712978
0.000638029
0.000638014
0.000637998
0.000638029
0.000638029
0.000648097
0.000638029
0.000670437
0.000646543
0.000645971
0.000648756
0.000638029
0.000638029
0.000744409
0.000659692
0.000638029
0.000638029
0.000638029
0.000638029
0.000638029
0.000638029
0.476334
0.0449634
0.211469
0.000638029
0.000638029
0.000638029
0.000638029
0.000638029
0.000638029
0.000638029
0.000638029
0.000750616
0.000638029
0.386828
0.473472
0.000638029
0.000638029
0.000638029
0.000638026
0.000638029
0.000638029
0.000638028
0.576363
0.000638029
0.000638029
0.000638029
0.000638029
0.000638029
0.000688677
0.000638029
0.000638029
0.0337033
0.000638025
0.000638029
0.256282
0.000638029
0.000638028
0.000638029
0.000638029
0.916205
0.000638029
0.000638029
0.000638029
0.000638029
0.000638029
0.000638029
0.000649773
0.000638029
0.000638029
0.000638029
0.000638028
0.000638029
0.000638029
0.000638029
0.000638029
0.000650173
0.425057
0.253948
0.000638029
0.000638029
0.000646227
0.000638029
0.000650252
0.634004
0.000638028
0.000648279
0.246559
0.000638029
0.000646467
0.000638028
0.000638029
0.000773298
0.119519
0.000638028
0.000648148
0.000646197
0.322508
0.000638029
0.000638029
0.000638029
0.000638011
0.000638029
0.000638029
0.000672839
0.000638029
0.000638029
0.00064862
0.156886
0.00281228
0.000638029
0.330383
0.000638029
0.330196
0.000638029
0.000638029
0.762726
0.000638029
0.000650118
0.000638026
0.000638028
0.000649387
0.000638019
0.000638029
0.000789931
0.000638029
0.568803
0.00074727
0.000638029
0.000638029
0.000638029
0.162919
0.000638024
0.000638027
0.000638029
0.000638029
0.000638004
0.000638029
0.000638029
0.000638025
0.000638025
0.000646196
0.000638029
0.000638029
0.000638029
0.564932
0.000638029
0.000638029
0.000638029
0.140502
0.000638029
0.000638029
0.000638028
0.000647675
0.000638029
0.000638029
0.000638013
0.00063802
0.000638029
0.000638029
0.65871
0.000707961
0.000638029
0.27911
0.000645905
0.000646521
0.000571676
0.000638029
0.000638028
0.000646941
0.000638029
0.000638029
0.000638028
0.000638028
0.0918406
0.000638029
0.000638001
0.139933
0.00063803
0.36723
0.000638029
0.000638028
0.00063803
0.000638022
0.365527
0.000638026
0.510577
0.000638029
0.000638029
0.526603
0.000638029
0.000638029
0.482977
0.151453
0.000638029
0.000638029
0.000638029
0.000638029
0.000648789
0.47869
0.000638029
0.0556747
0.000638029
0.000638029
0.165592
0.601457
0.000638023
0.000638029
0.722418
0.00063798
0.000670373
0.000638024
0.000638029
0.000638029
0.000638029
0.000638029
0.000646799
0.000650386
0.000638029
0.000638029
0.000638026
0.00077824
0.000648674
0.000637993
0.479744
0.000637972
0.000646366
0.000638056
0.000638029
0.000638024
0.000646138
0.484274
0.000638029
0.000638029
0.000690792
0.000638029
0.000638029
0.000638029
0.000638029
0.000638029
0.000646734
0.477023
0.000638029
0.000638029
0.000637964
0.00063797
0.00064662
0.000638029
0.000638029
0.000638029
0.000638029
0.153528
0.000638029
0.669342
0.667172
0.000638029
0.000638029
0.000638008
0.000637986