/*--------------------------------*- C++ -*----------------------------------*\
| =========                 |                                                 |
| \\      /  F ield         | OpenFOAM: The Open Source CFD Toolbox           |
|  \\    /   O peration     | Version:  2312                                  |
|   \\  /    A nd           | Website:  www.openfoam.com                      |
|    \\/     M anipulation  |                                                 |
\*---------------------------------------------------------------------------*/
FoamFile
{
    version     2.0;
    format      ascii;
    arch        "LSB;label=32;scalar=64";
    class       surfaceScalarField;
    location    "0.05";
    object      phi;
}
// * * * * * * * * * * * * * * * * * * * * * * * * * * * * * * * * * * * * * //

dimensions      [1 0 -1 0 0 0 0];

oriented        oriented;

internalField   nonuniform List<scalar> 
62453
(
4.91488e-10
5.14629e-11
-3.09274e-11
-2.68378e-11
0.00152504
3.18371e-05
-0.000507106
-7.40819e-05
-1.00103e-11
-7.56899e-13
1.8085e-11
-2.10687e-12
8.99464e-12
1.42822e-11
-4.39487e-12
-1.66032e-12
2.47794e-12
6.01131e-13
4.78869e-12
-8.70238e-12
2.13067e-11
4.9085e-12
-1.03464e-11
-9.29872e-12
59.6821
37.4334
-60.9068
-41.9441
23.181
-32.4086
-39.5371
1.76739e-11
-2.34596e-12
7.812e-13
1.557e-11
-7.41078e-12
-7.62137e-12
9.38479e-12
4.44495e-12
6.30604
-36.8517
42.2369
44.431
-40.9038
-3.05226
1.14293e-11
4.95596e-12
8.0732e-12
-5.55768e-13
-6.65289e-12
-3.19843e-12
9.76314e-13
4.95437e-12
-3.8945e-12
1.53433e-12
-2.80437e-12
-4.86957e-08
-7.39839e-08
5.59071e-07
-4.88717e-08
8.81467e-12
1.57864e-14
-5.80333e-14
3.10138e-13
-1.55002e-11
-8.93004e-12
-2.59871e-11
3.89013e-13
6.67802e-09
-5.05663e-10
1.39919e-09
-1.01822e-09
7.96987e-12
-1.94093e-11
6.41985e-12
1.87444e-11
1.83077e-11
3.31234e-12
-5.46966e-12
-1.62991e-11
1.21746e-11
-2.16592e-12
4.36787e-12
1.4866e-13
7.22445e-12
-4.54016e-13
5.53092e-13
2.20773e-12
3.93415e-12
5.98969e-12
5.70103e-12
2.25421e-11
-3.3922e-12
4.6876e-12
-6.20903e-12
9.0275e-12
-6.36621e-12
-7.76839e-12
-9.25139e-12
4.84132e-12
4.39793e-12
-1.3381e-11
97.8187
15.7175
-117.706
6.22759e-12
7.84874e-12
-3.89227e-11
1.3621e-11
0.252402
0.65889
-0.685618
6.11282e-12
4.7211e-12
-7.96339e-12
-0.40862
52.011
42.2708
-93.3545
-2.72875e-12
-9.64688e-12
-1.34196e-12
5.03174e-12
-2.50323
-36.734
35.2125
-28.1893
-8.9634e-12
-1.29528e-11
-5.24725e-12
1.44819e-11
9.55331e-12
1.248e-11
3.56759e-12
-1.61892e-12
-1.37013e-11
-2.82625e-12
2.10275e-11
7.26904e-12
4.7233e-12
-1.8638e-11
3.10607e-12
8.52072e-12
-5.26985e-12
1.3103e-12
-1.31233e-11
7.5512e-12
-5.07121e-12
-5.03066e-12
-6.32095e-12
-1.37362e-13
-1.65923e-11
-3.33284e-12
-1.41664e-12
1.56542e-11
-1.82184e-11
-4.657e-12
1.5967e-11
-3.85692e-12
-5.09345e-10
-8.82356e-10
5.47814e-09
3.59695e-13
1.00607e-11
-2.20488e-12
-3.41833e-12
0.377784
0.245544
-0.192024
-0.351833
2.00327e-12
2.91368e-12
3.22726e-12
-9.95151e-13
-1.89468e-12
-1.37622e-11
1.60856e-11
4.71685e-12
-12.3212
97.6416
-0.133404
-80.895
30.5495
-10.3443
30.8292
1.12532e-11
-1.1537e-11
-3.92709e-12
1.29367e-11
-5.12229e-12
-4.1651e-12
9.82433e-12
23.4698
-12.1136
-12.5314
9.3387
1.59528e-11
-1.16649e-11
-1.01002e-11
3.01865e-12
-0.00020875
-0.000123246
0.000150158
0.000264228
-8.8014e-13
-1.33842e-12
1.88617e-12
5.44776e-12
-3.13453
0.433139
9.90236
-4.36126
4.92844e-13
-4.32076e-12
7.38934e-12
-1.24573e-14
-1.98074e-11
3.32362e-11
-7.9427e-13
3.84764e-12
9.07783e-12
-1.57266e-12
-3.23867e-12
5.19525e-12
2.23376e-11
-4.30771e-12
-6.37973e-12
-7.04962e-12
-1.90538e-11
4.78289e-13
4.10049e-11
-1.23446
0.939416
0.087213
0.995327
-1.17667e-11
1.62715e-11
-8.16672e-12
1.71959e-11
-6.16656e-13
-1.22251e-11
-1.0451e-11
-1.31335e-11
1.02432e-11
3.28958e-05
7.51807e-05
-2.23536e-05
-3.01485e-05
2.42272e-12
1.33367e-13
-3.45276e-12
1.42672e-13
-0.00781717
0.0244443
0.00348156
-0.0142181
6.36423e-12
-3.03097e-12
-1.82966e-12
5.82843e-12
8.95261e-12
-5.32092e-12
-2.50785e-12
-3.22065e-11
-1.43448e-12
-5.42283e-12
6.59539e-12
-3.33367e-11
4.34371e-10
-1.89143e-11
2.72149e-11
-53.2147
26.2127
38.5535
1.3919e-11
-1.15691e-11
1.07922e-11
1.42559e-11
-7.29921e-12
-4.14102e-12
1.01328e-11
-0.0146262
-0.00585087
0.0055071
0.0172523
2.98434e-12
-1.7936e-12
4.26142e-12
-8.92243e-12
1.55134e-11
1.00593e-11
2.35344e-12
-1.33916e-11
1.09346e-11
-9.74251e-13
9.09342e-13
-1.81629e-11
-2.76381e-12
1.93116e-12
1.33051e-11
-8.80822e-12
2.82038e-11
9.56668e-12
2.92761e-11
8.92752e-12
-0.000418045
0.00104088
-0.000507009
0.000333781
-56.5165
2.23813
61.4169
9.05705e-12
-6.60563e-12
9.15074e-12
5.10832e-12
-5.5168e-12
-1.4141e-12
-7.04171e-13
1.88586e-13
4.94717e-12
3.08837e-12
-3.53137e-12
-6.16795e-12
0.010384
0.00836315
0.00542962
-0.0194302
6.79854e-12
1.87857e-12
-1.40502e-12
-2.15405e-12
4.36385e-12
-3.25886e-13
2.67928e-12
2.86166e-12
-2.55888e-12
-6.05492e-12
-4.41274e-12
1.46318e-12
-6.21118e-12
4.85744e-13
-8.6121e-12
2.27646e-11
-9.05428e-13
-3.21626e-12
8.01751e-12
6.45663e-13
-6.49743e-12
-2.07084e-11
-6.10261e-12
2.34013e-12
5.85854e-12
1.25649e-12
-4.98915e-12
-8.53261e-12
1.26355e-11
-0.000242466
7.81023e-05
-5.19313e-05
0.000442569
-0.00747307
0.0393645
-0.0241494
-2.65747e-12
-4.75907e-12
5.6112e-12
-5.61136e-13
-8.11781e-12
81.0991
-41.1345
-38.6405
0.00113772
0.000638119
-0.000696195
-1.00881e-05
-1.20279e-12
3.87793e-11
-1.40995e-11
-2.3225e-05
1.26541e-05
1.86399e-05
1.69397e-05
9.21138e-13
-9.40752e-12
-1.83897e-11
-3.12182e-11
-9.43448e-12
1.14806e-11
3.94102e-12
-1.07699e-11
3.33957
-0.368304
0.480428
-1.96797
5.30503e-12
-1.33443e-11
1.44117e-11
-0.000207698
-9.06571e-05
0.000468738
1.31438e-05
9.20024e-12
-1.75107e-12
-1.47002e-11
2.92601e-12
3.27971e-12
5.93254e-12
-7.28578e-12
-0.0250098
-0.0251833
0.0665848
2.50735e-05
-0.000123659
0.000333518
-7.2691e-05
6.90429e-12
-2.75343e-12
9.62315e-13
5.44515e-12
-8.2286e-12
-3.95122e-12
5.73761e-12
-3.15783e-13
2.1565e-11
-4.36897e-12
-8.81111e-12
9.68884e-12
-102.448
35.5209
-20.3723
82.5383
2.37928e-13
1.14003e-12
1.9671e-11
4.79035e-12
4.68416e-05
-5.92614e-05
7.58889e-05
-1.18984e-05
-1.37333e-11
-1.09306e-11
1.96142e-11
-7.49961e-12
-3.87651e-13
-7.2305e-12
7.65474e-12
4.59164e-12
-6.01569e-12
-6.051e-12
0.0201997
0.0107435
0.00274176
-0.0275194
4.83853e-12
7.74971e-12
-2.09835e-11
5.92007e-12
9.32462e-12
-4.68326e-12
-1.8114e-11
0.000908318
-0.000290147
0.00124859
-0.000938278
6.10219e-08
-1.25715e-08
9.33864e-08
-3.00211e-08
-3.99777e-08
3.11678e-10
2.52593e-07
-5.70232e-09
2.54166e-08
-4.20415e-09
2.72552e-08
-1.697e-06
-8.87167e-07
-1.1785e-06
1.26114e-05
-0.0008399
-0.000278802
-0.000543678
0.002285
-0.000736603
0.000189813
0.000749107
1.50846e-11
4.39972e-12
1.26612e-11
-1.25908e-11
1.02902e-09
-1.09086e-09
8.96984e-11
4.95431e-09
6.18597e-12
-5.75786e-13
-5.57284e-12
-5.51314e-12
-2.7447e-12
1.1174e-12
1.3877e-11
-1.7003e-11
-3.03675e-12
3.13763e-12
-0.0019025
0.00172412
-0.00127059
0.00193364
-5.63958e-09
7.30917e-08
-5.04806e-09
-5.8849e-09
4.58722e-12
-1.74199e-12
2.68836e-12
4.38812e-12
-132.209
95.9076
-29.0602
62.6704
-6.13002e-12
-8.94103e-12
-8.28092e-12
3.72157e-12
1.87885e-11
-6.7521e-12
-9.01518e-13
-1.77757e-11
-1.10366e-11
1.23193e-11
-4.65075e-12
-6.87675e-12
-9.5585e-05
0.000169985
-0.000103797
0.000124517
-2.00254e-06
3.9658e-06
7.95689e-07
1.54636e-11
-5.9198e-12
-7.11582e-12
-4.66807e-12
0.0232351
0.0986018
-0.0834189
-0.0246175
-1.56163e-06
3.49271e-06
3.26192e-06
-1.07988e-06
-4.6093e-12
4.77671e-12
2.20015e-12
-9.13022e-12
7.53052e-12
1.95567e-11
7.37133e-12
-5.41165e-12
1.16093e-11
1.12651e-12
2.02328e-12
5.38387e-12
-1.81413e-09
1.47633e-09
7.53992e-09
3.57088e-09
-7.27088e-12
-2.01762e-11
-9.44524e-12
-1.31817e-13
-1.59768e-10
-1.25618e-10
5.02561e-11
3.85444e-12
1.92159e-11
-1.13479e-11
-3.66633e-11
-7.55189e-12
-3.21e-13
8.50936e-12
3.15844e-11
-1.78136e-13
-7.81118e-13
-1.28389e-11
-4.52356e-12
2.58517e-05
1.72307e-05
-2.34146e-05
3.94132e-05
1.89193e-11
1.89419e-11
1.59528e-11
7.17539e-12
2.374e-12
5.67027e-12
2.02481e-11
6.7579e-12
-6.52661e-12
5.32275e-12
-4.2591e-12
-6.13877e-12
1.64765e-12
2.24476e-11
-2.75443e-11
1.83793e-11
109.671
-12.0694
-98.8579
0.00015812
-0.00126933
0.000488086
0.000957256
-1.11757e-11
1.37165e-11
-3.64585e-12
1.59243e-11
4.75787e-05
0.0018989
4.15665e-05
-0.0017675
-3.72539e-12
-1.02754e-11
-2.60416e-13
1.65411e-11
4.64327e-12
5.60181e-12
1.5246e-12
-4.52507e-12
0.00493711
7.93335e-05
-0.000505481
-0.00430939
8.01072e-12
-1.86652e-11
3.4615e-12
5.00364e-12
0.000158807
-7.19208e-05
0.00012388
-0.000108067
-1.05499e-11
1.38364e-12
1.97125e-11
5.80558e-12
8.71451e-12
2.58484e-12
8.17173e-12
-7.22695e-12
1.82041e-11
-1.33092e-11
-4.70351e-12
-7.64436e-12
-3.07013e-12
-1.55359e-11
1.66819e-12
6.37553e-12
4.73071e-12
-1.81272e-12
5.2292e-13
-3.86718e-12
1.20589e-11
4.06629e-12
1.86946e-11
-3.06478e-12
-2.40793e-12
2.72111e-12
-2.59774e-12
-9.47573e-12
1.49781e-11
-6.21553e-12
3.74394e-12
-1.57971e-11
-2.62656e-12
1.05e-10
8.08199e-12
-7.936e-12
1.52608e-11
2.88834e-12
4.08107e-12
2.53071e-12
1.57275e-11
-1.53361e-12
-3.20828e-12
-1.43926e-11
3.51728e-12
3.97774e-12
9.09951e-12
-1.22799e-11
5.46019e-12
-0.000130509
-0.000182066
0.000545722
4.62976e-12
8.41355e-12
-6.66535e-12
-1.17645e-11
1.48405e-12
-2.61477e-13
1.2202e-11
5.15591e-12
-1.98082e-11
4.70945e-12
3.32681e-12
-7.73847e-13
4.36141e-13
1.21361e-12
9.13885e-12
-5.85843e-13
-4.75951e-12
-3.3799e-13
1.39809e-11
-1.57192e-11
7.66357e-12
-3.13139e-12
4.49622e-12
1.78554e-12
-2.24624e-12
2.70991e-12
5.06462e-12
6.75337e-12
-1.4902e-12
-7.76478e-12
-5.85764e-12
2.41699e-12
-1.62857e-11
-2.64576e-11
-2.88245e-11
-0.000125741
0.000136702
5.1368e-05
5.25105
-2.98285
-3.9344
4.78368
-4.14496
-2.37274
6.2425
-4.96603e-06
-6.11834e-07
2.99358e-05
-5.69252e-06
1.14292e-11
3.41361e-12
-2.83977e-11
3.17231e-12
-1.10077e-11
-1.00144e-11
9.81027e-13
1.00679e-11
-4.69343e-12
6.53475e-12
-2.4116e-12
5.78627e-12
6.17368e-12
3.82837e-11
1.34406e-09
-1.50871e-10
-1.72799e-10
5.03223e-10
3.28528e-06
5.80575e-08
-2.25419e-07
-4.90117e-07
-0.00210699
0.000647956
-0.00277382
0.00458063
-0.00125459
-0.0020257
0.00186246
1.19753e-11
1.14598e-11
1.39501e-12
2.39496e-12
2.056e-12
1.53106e-11
6.68611e-12
4.39349e-13
-1.14916e-11
-3.07397e-12
-8.21942e-12
4.32313e-12
-2.12364e-11
1.68967e-11
-1.75903e-11
6.56101e-12
1.27029e-12
3.32192e-11
8.33916e-12
-2.11044e-07
5.1281e-07
4.18911e-07
1.17727e-07
-0.0159011
-0.00675103
0.037046
-5.79951e-12
7.62934e-12
8.12434e-12
1.1075e-11
-1.05531e-11
-2.56339e-12
1.00088e-11
-6.00828e-12
9.10693e-13
1.4393e-10
2.10671e-12
-1.71708e-09
1.42689e-08
-8.10839e-10
1.24751e-09
2.42197e-08
5.99914e-07
-1.04881e-07
-9.3702e-12
-1.98937e-12
1.17417e-11
1.33614e-12
-8.49913e-12
4.28636e-12
-1.52921e-10
-5.03821e-12
8.58689e-10
-4.27466e-11
-0.0179225
0.00281148
0.040855
-0.0209271
-6.18311e-12
-6.02672e-12
-1.59311e-11
6.87446e-12
-4.0209e-12
8.58292e-14
-5.95008e-13
1.19735e-11
-7.89036e-12
9.56973e-12
-8.34975e-12
-1.23281e-11
3.06968e-12
-6.7828e-12
-4.38707e-12
-1.90293e-12
-0.00528876
0.00430354
-0.000480438
0.00198641
-7.71544e-12
3.18368e-12
-4.15308e-12
-1.90935e-12
-3.22024e-12
-9.10973e-12
7.36065e-12
0.001488
6.04804e-05
-0.00149936
0.000451581
1.51507e-11
-3.33187e-12
-7.81215e-12
-6.89144e-13
-5.2362e-12
-1.65332e-11
104.956
-68.0494
121.287
-163.458
-1.02477e-11
1.96278e-11
9.34146e-12
-4.51308e-12
5.82284e-12
8.67051e-12
-2.11712
1.53038
-1.72696
3.09353
-2.24427e-11
-6.03413e-12
2.80424e-11
1.41546e-10
8.78564e-12
-1.33724e-11
-1.51982e-11
-2.65542e-12
3.11179e-12
-7.35628e-12
9.86376e-12
4.6244e-12
1.36323e-11
1.74638e-11
2.47336e-11
-5.85894e-12
-1.81613e-12
4.01553e-12
4.91449e-12
1.0661e-11
-3.42825e-12
-5.99979e-12
8.46727e-12
-2.93005e-12
-1.68706e-12
1.10336e-13
-4.82416e-13
-1.74534e-13
-7.8804e-12
1.0075e-11
-1.38989e-05
4.22239e-05
8.06987e-06
-5.12683e-06
-7.62894e-12
-3.61846e-12
2.27908e-12
2.09093e-11
-2.3174e-11
1.11254e-11
9.85758e-12
7.51327e-12
2.20563e-12
-2.6941e-12
-5.04962e-12
-2.32263e-11
-6.90169e-12
-3.1104e-12
0.00164595
-0.00300635
0.000883478
4.94726e-13
5.62149e-12
6.30931e-12
-2.42049e-12
5.95576e-13
1.14292e-11
1.61146e-11
7.75691e-14
4.5021e-13
-8.52267e-12
9.87647e-13
4.61218e-12
2.84176e-12
4.67014e-12
-9.96745e-12
-2.82842e-11
-1.09955e-11
-8.1008e-12
-3.93898e-13
1.57763e-11
3.94151e-12
-5.92469e-12
2.9971e-12
-3.7161e-12
7.09112e-13
1.24469e-12
7.29378e-12
2.68031e-12
-7.21149e-13
4.95924e-13
6.44641e-12
-6.96892e-12
1.88798e-15
3.06108e-14
9.06797e-12
5.00204e-13
-1.58776e-11
-1.03546e-11
6.2458e-12
-2.03782e-12
-6.68847e-12
2.24993e-11
-7.17998e-12
4.89003e-12
1.47781e-11
-3.18515e-13
8.15142e-12
8.49073e-12
-6.93909e-12
1.50031e-11
-2.2283e-12
3.16317e-12
7.23994e-12
7.09934e-12
7.7643e-12
6.6256e-13
-7.2925e-13
-2.94712e-12
-4.55879e-12
1.11099e-11
2.24885e-12
-6.95159e-12
1.12873e-11
0.000851739
-0.000820942
0.00151092
-0.00135999
7.97154e-12
3.12711e-11
-3.38771e-11
-1.04407e-11
-2.95138e-12
-3.73878e-12
1.119e-12
4.74754e-12
4.41109e-12
2.22301e-12
-1.26802e-11
-6.61096e-13
3.96009e-11
-3.76942e-11
2.9831e-11
-1.26011e-11
-5.95567e-12
1.9859e-11
1.07447e-11
1.37831e-11
-0.0764117
-0.0409684
0.118034
0.0470057
-0.0406658
0.0105063
-0.124977
0.178031
8.84501e-12
1.07879e-11
-2.23121e-11
-8.93297e-12
3.7932e-09
-4.10918e-10
1.59597e-09
-5.98532e-05
5.0415e-06
0.000160771
0.0328227
-0.0326572
0.00222214
0.0113471
1.17991e-11
-2.06843e-14
2.20202e-12
-1.55306e-12
7.78605e-12
-2.42762e-12
-1.25923e-11
3.11077e-12
8.9938e-12
-3.70769e-12
-1.86154e-11
5.19412e-12
68.8184
-70.016
-49.9599
48.6498
5.57207e-12
1.50468e-11
-1.17984e-11
5.88009e-13
-1.39852e-13
1.05821e-11
-0.00895004
0.00507849
0.0129843
-0.00662836
-3.07008
-9.07292e-05
0.000143682
-2.84638e-05
4.58609e-05
-3.81697e-12
7.8499e-12
-3.53225e-12
-4.23152e-12
-4.40191e-12
-4.72354e-13
-1.03971e-11
-1.38274e-12
-3.23623e-12
7.99056e-12
-1.3795e-12
-9.98682e-12
3.40012e-12
-14.4817
-37.32
2.57611e-12
6.51812e-12
-2.21913e-12
-4.44299e-12
5.84718e-12
-1.85097e-12
2.29903e-12
8.56924e-12
-1.25397e-12
6.44531e-12
-4.21721e-12
4.88539e-13
-4.75794e-12
7.0551e-12
-4.10327e-12
-5.33802e-12
-1.69643e-11
-5.72649e-12
8.72003e-12
1.14247e-12
-7.5867e-12
4.51364e-12
6.86394e-14
1.36977e-11
-5.88601e-13
1.69863e-11
-1.0431e-11
-7.26829e-12
4.13546e-12
5.49612e-12
8.62516e-12
2.85855e-12
1.64494e-12
-7.02587e-12
1.3588e-11
7.80964e-12
-6.33378e-12
-7.30627e-12
-8.30212e-12
1.52427e-12
3.69079e-12
-1.8099e-11
-6.62841e-12
7.23883e-12
-5.83592e-12
-8.65864e-12
1.24468e-11
7.48468e-13
-4.16202e-13
-4.09707e-12
-4.30239e-12
1.10657e-11
1.47424e-11
1.2782e-11
-1.58161e-13
-1.20475e-12
-7.29411e-12
-3.55826e-12
-1.92798e-11
-1.69959e-11
-0.00109887
-0.000856896
-0.00267705
0.00483292
1.01611e-11
-1.44068e-11
9.19926e-12
5.70311e-12
-5.2091e-12
1.0189e-12
-1.04817e-11
-3.30257e-12
-3.13452e-13
201.334
19.3759
7.50718
-211.391
1.71129e-12
-3.56038e-12
-7.7794e-12
6.38782e-12
5.83844e-13
-2.6112e-12
9.81873e-12
-1.2864e-11
-7.37175e-12
-9.14681e-12
2.97114e-11
-4.03589e-12
2.49337e-12
-1.25939e-11
1.28127e-12
7.70168e-12
7.49636e-12
6.67836e-12
-4.1462e-12
1.69501e-12
-3.59887e-11
1.6692e-10
2.14233e-10
6.3734e-12
1.51514e-11
-3.59627e-12
-2.66363e-12
1.18311e-11
1.14973e-11
6.12105e-14
1.56332e-11
1.61269e-11
7.18828e-14
6.53349e-12
-5.3166e-12
1.74112e-12
3.72611e-12
-2.10793e-12
3.23514e-11
1.1306e-11
-2.52027e-11
-6.40858e-12
4.64453e-12
-3.62728e-12
1.53448e-11
-9.79044e-12
7.85308e-13
1.0896e-11
1.25034e-11
6.38216e-12
-1.6851e-13
-1.43999e-11
2.23501e-11
-4.48562e-13
-3.97667e-12
6.02556e-12
6.12029e-12
-5.65158e-12
-4.86588e-12
6.64046e-12
-1.32139e-11
-6.41978e-12
-2.29992e-11
6.14411e-12
-1.8635e-11
1.33305e-11
-3.71858e-11
-1.82542e-11
2.55647e-11
1.91759e-10
-0.00182182
0.00317074
-0.000725385
0.000519336
6.42314e-13
-2.77908e-12
-5.37576e-12
8.13447e-12
3.21007e-12
-1.10325e-11
-2.12384e-12
6.68086e-12
2.54464e-12
9.25443e-13
-7.93956e-13
-8.89904e-12
8.38752e-13
-8.57542e-12
-2.36188e-12
7.05536e-12
-7.39202e-12
-3.15793e-12
-8.63018e-12
-8.66203e-12
2.14938e-11
5.78551e-12
8.14483e-12
-9.48691e-09
-5.5275e-09
-5.03268e-09
1.12392e-07
0.0200904
-0.0129195
0.00420297
-0.00730537
3.04958e-09
3.22501e-08
-4.0709e-09
-9.9826e-13
6.26007e-13
-9.65536e-12
2.83904e-11
-1.12528e-11
-2.38998e-12
1.3671e-11
7.18066e-13
-1.54867e-12
-3.6043e-12
-3.10653e-12
1.22953e-12
2.60328e-12
-7.21797e-12
-9.66982e-12
1.55773e-11
-2.16181e-12
2.77764e-12
-2.10753e-13
3.66953e-12
-8.54193e-13
-1.80251e-12
1.12138e-11
-1.81826e-11
-1.14795e-11
1.40066e-12
-1.07182e-11
-1.11063e-11
-1.09587e-11
3.45817e-11
-4.83749e-12
1.2037e-11
-2.25878e-12
21.7061
77.6697
-33.4283
-67.9125
4.23381e-12
-3.13468e-12
-9.54966e-13
4.65418e-12
-1.07229e-11
-3.3177e-12
-2.67161e-11
6.08996e-12
-5.81357e-12
-1.40688e-11
1.26688e-11
1.80133e-12
9.6125e-12
-0.000696675
-0.000572577
-0.000673482
0.00350638
4.465e-12
-4.48456e-12
-1.07463e-11
1.21918e-12
2.11114e-11
1.15837e-12
-4.11352e-12
-4.72956e-12
-40.5628
26.6495
3.24897e-11
-1.23158e-11
-1.64699e-11
-1.26743e-12
-1.07549e-09
-1.64258e-09
5.41742e-09
1.50137e-11
3.95234e-12
-2.48577e-12
6.03313e-12
1.2368e-11
2.35417e-12
-1.4829e-12
-1.59582e-12
2.03233e-12
-1.37848e-11
-9.14607e-12
2.35877e-12
-5.51985e-12
8.96371e-13
-0.000772604
0.00126983
-3.08374e-05
5.63974e-05
3.20114e-12
2.11439e-11
3.91877e-12
-2.93567e-11
1.7595e-10
-2.64269e-11
2.65048e-11
2.94717e-11
-7.68008e-13
-1.28394e-12
2.62949e-12
-4.77584e-12
5.81414e-12
1.27643e-11
-1.12587e-11
-3.01965e-12
2.11107e-11
-7.42585e-12
1.54999e-11
2.03746e-11
-1.41888e-11
-4.23341e-12
-5.2668e-12
7.44464e-12
-1.06761e-12
1.28298e-11
8.68533e-12
4.39312e-12
8.13214e-12
6.75056e-12
-8.3052e-12
-8.36075e-12
-8.95189e-12
-7.64953e-12
1.1891e-11
4.97291e-12
4.10526e-12
5.25994e-12
1.23519e-11
6.21284e-12
7.76288e-12
-1.00879e-11
9.24771e-12
1.0235e-11
2.85739e-12
6.0996e-13
7.9252e-12
3.53296e-12
-1.1378e-11
1.20137e-12
-1.41211e-12
4.71512e-12
-7.69395e-12
-4.2147e-12
-6.26561e-09
6.52477e-08
3.61209e-10
-1.24383e-12
8.99614e-12
-6.6787e-12
-2.89993e-12
-1.53439e-10
-1.65647e-10
1.09666e-09
1.25288e-09
-5.60706e-12
1.99678e-11
-9.28142e-13
2.08253e-11
-1.40294e-12
-2.4032e-06
6.85219e-07
3.26223e-06
2.50667e-06
0.00551361
-0.00365148
-0.00169018
-7.09708e-12
-2.14595e-11
7.81461e-12
-8.86105e-12
-7.88914e-12
7.34123e-11
-6.98655e-12
-1.83167e-12
-0.000333297
0.000480469
-0.000251599
0.000746562
0.00270881
-0.00381293
-0.00549405
0.00727928
7.97041e-09
5.17174e-06
-2.72941e-07
-8.57289e-07
-6.08427e-12
-1.01451e-11
-9.08653e-14
3.28396e-12
1.41761e-11
-9.27549e-13
5.77618e-12
4.17416e-11
-3.33825e-12
9.44487e-12
1.02437e-11
2.95503e-12
-8.92271e-12
-1.18498e-11
8.78142e-12
-7.49602e-11
1.54155e-10
2.0916e-10
3.88269e-12
-2.33089e-11
2.55347e-11
-1.36403e-11
8.00137e-12
-3.53725e-12
-1.04281e-09
-4.2289e-10
-1.8305e-11
2.1468e-13
3.41703e-12
2.51113e-11
1.48438e-10
-5.87577e-12
2.96586e-11
-3.21071e-11
6.80429e-11
-2.62988e-13
-4.64637e-12
1.10782e-09
-9.56661e-11
-4.08447e-11
1.07799e-11
-2.02261e-09
2.37577e-08
-1.00831e-08
2.47614e-08
26.1118
28.3288
32.7417
-87.7734
-2.87799e-08
2.2426e-07
-2.69242e-08
2.84144e-08
2.36703e-12
-1.47437e-11
-5.77401e-12
-6.91004e-12
2.52296e-12
1.46487e-11
-7.94255e-12
-8.68587e-12
-2.06374e-12
2.14522e-11
26.0031
-71.6884
2.60488e-11
-4.61443e-12
2.45358e-11
6.34839e-12
4.58696e-12
1.49815e-11
-2.23048e-12
1.56176e-11
1.53992e-12
2.45819e-12
-9.1673e-12
1.09452e-05
6.06926e-06
3.33567e-05
-8.99367e-06
-1.89908e-11
8.22132e-12
-1.55529e-11
-8.20734e-13
5.10102e-12
7.10945e-11
-1.07596e-11
-1.53899e-11
-2.24505e-12
1.72955e-11
1.54244e-11
-2.74914e-11
4.11717e-12
-6.62847e-12
-1.05857e-11
2.75754e-12
3.99889e-12
1.35386e-12
-4.16626e-12
-4.75501e-12
-1.09256e-11
3.15333e-12
1.59057e-11
2.26172e-11
-1.22481e-12
-3.18924e-11
-2.02546e-11
-6.29341e-11
1.00023e-10
5.1195e-10
69.6018
-121.349
65.1075
-10.5023
-2.99391
0.029652
0.146142
-7.96047e-12
6.44158e-12
6.27036e-12
9.14247e-12
-4.33196e-12
-3.85547e-12
-1.28803e-12
-39.822
39.6739
-57.8938
57.0081
9.51342e-12
-1.26221e-11
1.64783e-12
8.51741e-12
-2.0477e-12
6.87443e-12
-6.79682e-12
1.38608e-11
-6.88619e-12
4.37741e-12
2.08985e-12
2.38987e-14
1.20216e-11
-1.01054e-12
3.48325e-12
-6.75451e-12
6.79705e-12
8.20132e-12
-2.00557e-11
2.63183e-13
1.78712e-12
-7.083e-12
4.96763e-13
1.0783e-11
-7.3994e-12
1.73403e-11
-6.73927e-12
-0.0050092
-0.00190179
0.0014168
0.0111381
-1.39864e-11
6.56342e-12
-6.81336e-13
6.95041e-12
-5.3937e-12
-5.75278e-12
-1.14387e-12
7.37978e-08
-1.73458e-08
5.87119e-08
-0.0279956
-0.00367359
-0.0168631
0.0645664
-1.57277e-11
1.39976e-11
1.01185e-12
8.82257e-12
-3.92105e-12
-2.80449e-12
-4.47584e-12
2.96942e-13
-2.12308e-11
-1.08638e-11
9.0624e-11
9.30024e-12
5.97878e-12
-2.86474e-12
-2.72444e-12
-6.07581e-08
-5.39929e-08
1.51319e-07
1.71713e-07
1.00196e-11
2.42621e-11
-1.33287e-13
-8.12876e-13
-1.6555e-12
-2.45813e-12
2.46751e-12
-1.27104e-11
2.35263e-11
-8.25034e-12
1.26262e-11
1.15929e-11
9.30889e-12
2.47417e-12
-4.0234e-13
2.25882e-12
2.15653e-11
-1.35971e-11
8.24225e-12
5.64122e-13
8.92638e-12
1.59616e-05
3.93966e-06
-2.3624e-06
-2.28882e-06
1.85873e-12
-2.85667e-12
4.638e-13
-7.86679e-12
-1.21764e-11
-1.20119e-12
1.45046e-11
-7.60917e-12
1.38706e-11
0.000649561
0.000573551
0.000346223
-0.000548682
5.26263e-12
3.20177e-11
-1.44374e-11
-5.21441e-12
7.46967e-12
-9.12833e-12
-1.17087e-12
3.98325e-12
1.13671e-11
2.83763e-13
1.51687e-11
1.08126e-12
1.33633e-12
-3.58242e-12
4.47121e-10
-3.61981e-11
-3.50983e-11
-2.70931e-11
5.80796e-12
-1.21736e-11
-6.04907e-12
6.31521e-12
-9.31483e-13
1.2564e-12
-8.22016e-12
-4.64792e-12
-3.12957e-13
-7.61219e-12
-3.8092e-12
-1.98408e-12
7.31999e-12
2.00086e-12
1.37637e-11
1.24506e-12
-6.09876e-12
-3.61495e-12
-4.02186e-12
1.22109e-11
3.45955e-12
-9.73912e-12
1.3652e-11
-7.76182e-12
-2.52691e-12
6.49717e-11
-1.25629e-11
12.4423
-21.6027
-16.7987
40.3055
-7.99582e-12
3.77755e-12
-8.57451e-12
2.29317e-12
-1.12982e-11
1.3769e-13
-4.19125e-12
3.91534e-12
4.07405e-12
-0.000435446
-0.000301051
0.0010254
0.000462922
1.16038e-11
4.24521e-12
-1.65801e-11
1.28097e-11
-3.55964e-12
-1.15704e-11
2.59878e-12
1.14394e-12
0.000460466
0.000570141
-0.000922698
0.00101257
2.19291e-11
-4.64291e-12
-2.6264e-11
-2.94654e-05
-1.46987e-05
0.000182702
4.31693e-06
2.61567e-12
-1.39685e-11
8.4906e-12
-1.36163e-11
1.20379e-11
4.5757e-12
-1.41573e-12
2.35032e-12
4.71528e-12
2.55614e-12
3.14759e-12
2.35825e-12
0.000122485
0.00302512
-0.000368941
-0.00141601
9.51997e-12
-1.04563e-11
-2.68937e-11
3.94874e-12
7.27501e-12
9.32923e-12
1.04674e-12
-7.93065e-12
0.0109227
0.00179355
-0.000874004
-0.00987814
-1.08842e-05
-8.28317e-07
3.0665e-05
1.31667e-05
-3.65371e-12
-1.07474e-11
3.55756e-12
3.46852e-12
7.8924e-12
-3.97757e-12
6.78176e-12
5.06259e-13
-7.36645e-12
1.35996e-12
1.90249e-12
-6.1498e-12
-4.09387e-12
-2.21315e-11
1.31369e-11
5.85775e-12
6.69509e-12
-5.40141e-12
-0.00141381
0.0180138
-0.0133373
-0.00120478
2.89669e-12
1.48653e-12
1.54148e-12
-4.88514e-12
-5.9517e-12
-5.37337e-12
9.34806e-12
1.87392e-13
-1.47208e-11
1.7792e-11
-2.90053e-12
-1.10703e-11
-1.07029e-12
-1.28849e-12
-5.63442e-12
1.38204e-12
-2.99458e-11
-1.3134e-12
1.24991e-11
-2.10153e-11
1.38098e-11
7.03921e-12
6.16167e-12
2.80617e-12
1.88222e-10
3.15993e-10
-6.23402e-11
-5.40167e-11
-0.0146347
0.0124629
0.00179165
0.0049206
39.3688
-44.6978
-42.3728
5.67284
-0.134437
-3.92095
0.0150388
-0.00107632
-0.0162885
0.00323205
-0.00229185
-0.00132938
0.00101185
0.000864536
-0.00224426
0.0020809
-0.000301018
-0.0201452
0.030966
-0.031587
8.34603e-12
-1.39703e-11
-1.33846e-12
-1.14439e-11
8.16098e-11
1.155e-10
-2.15875e-11
2.14512e-11
1.03073e-11
1.33241e-11
-7.49514e-12
6.81085e-12
-6.53664e-12
-1.96144e-11
-6.1533e-13
6.22263e-12
-10.6147
-4.44977
17.8302
5.224e-12
4.27893e-12
-1.297e-11
-0.00310322
0.00106866
0.00502506
-0.00142701
-2.06395e-07
1.98884e-07
-1.00945e-07
-5.63915e-13
-9.46961e-12
-1.87858e-11
-1.14745e-11
4.07975e-12
7.3848e-12
-3.30507e-12
1.96531e-12
-6.57234
60.5406
-57.007
4.90869e-12
5.35708e-12
-6.21736e-14
-5.71322e-12
44.6169
24.9599
-12.021
3.29611
14.3052
-1.58192
2.34088e-08
2.22877e-07
-1.54177e-08
-3.48376e-08
0.00357679
0.00589886
-0.00130908
-0.00746328
-0.000203298
5.26772e-06
0.000214684
0.000443801
-0.000963385
-0.000909484
0.00345452
-0.000975274
-7.55241e-12
7.06374e-12
8.3534e-12
-1.18699e-11
1.63691e-11
1.54346e-12
-9.44255e-12
-5.04516e-12
2.5012e-08
-6.83402e-09
-1.72194e-08
1.24519e-07
3.97319e-12
1.69401e-12
-4.47259e-13
-0.00344829
0.0169335
-0.00386914
-0.00857452
-4.01874e-12
-3.20127e-12
-1.3502e-11
3.72426e-12
-9.14478e-12
4.30637e-12
-3.60696e-12
1.40351e-12
3.24863e-12
-3.39132e-12
1.80131e-12
3.05024e-12
15.2009
-91.8628
77.1371
-5.18101e-12
2.36309e-12
1.32564e-12
3.24003e-12
-1.16568e-11
5.92402e-12
-5.0548e-12
8.62897e-11
2.31338e-10
7.70331e-12
-1.52962e-11
1.14192e-11
-1.09589e-11
4.09011e-12
-1.38948e-13
6.17751e-12
51.695
93.9905
-95.7984
-51.8236
-7.00636
192.28
-96.0468
-88.5888
1.55518e-11
1.60104e-11
-1.20923e-11
-1.04981e-11
1.19925e-11
-1.89505e-11
7.03703e-12
5.6048e-12
-2.17247e-07
-2.44809e-07
-8.07723e-08
1.37598e-06
-9.54115e-12
-1.24553e-12
-3.54004e-13
90.799
-46.3307
8.85875e-13
-2.32845e-11
-5.37781e-12
-5.68358e-11
-1.62913e-11
1.15193e-10
-8.62414e-12
-2.1083e-12
-2.29596e-12
-9.72167e-12
5.4295e-12
-4.1944e-12
-4.28146e-13
5.24545e-12
-0.0789176
-0.13866
-0.246222
0.624422
1.42274e-11
-4.51877e-12
-6.45725e-12
2.06188e-12
3.83225e-12
-2.42319e-12
-0.620972
-1.81088
3.3658
-1.3021e-11
9.98385e-12
-7.84202e-13
-4.2632e-12
-4.62815e-12
-0.0178663
0.00924183
0.00515517
0.012731
4.50837e-12
4.21609e-12
5.56262e-13
-4.44323e-12
5.3529e-12
5.85996e-12
4.4418e-11
-0.188529
-0.270318
1.62293
-0.701504
7.93646e-12
1.63152e-11
9.31053e-12
-2.20761e-11
-6.63712e-12
1.95595e-12
-8.30448e-12
8.25679e-12
2.45346e-12
-8.16676e-13
-6.90746e-12
-7.6832e-13
0.000793725
0.00117132
-0.00082512
-0.0004849
6.09028e-12
-1.40746e-12
3.55668e-12
-5.69062e-12
-5.53408e-12
1.12468e-11
-6.64348e-12
-1.64704e-11
1.03992e-11
1.41852e-11
1.52585e-11
2.25677e-11
-1.00433e-11
3.33897e-12
9.16714e-12
3.03751e-12
-6.16737e-12
-2.8434e-09
4.01463e-09
-1.50566e-12
-1.48348e-12
-1.2377e-11
1.47924e-12
2.38108e-13
-2.29388e-12
-1.71662e-12
-1.44928e-11
-4.79598e-12
6.66615e-12
1.27253e-11
-1.14451e-12
0.850138
-0.332718
-0.343056
-3.89277e-12
3.65649e-12
2.76069e-12
-5.16865e-12
-3.18171e-09
3.02189e-08
-1.89484e-09
0.21776
-0.891845
1.19135
-1.65221e-10
2.06052e-10
3.41346e-12
-3.97086e-12
-4.32974e-13
2.65744e-12
2.63973e-13
1.22314e-11
-1.2897e-11
-1.58872
2.22761
1.13209
-0.897964
-44.3057
-30.6135
42.7243
34.9203
-2.16314e-11
-4.04734e-12
-4.39387e-12
4.29069e-12
46.9043
-118.597
118.358
-46.5071
-2.51673e-12
8.72608e-12
4.08944e-13
-149.974
151.752
11.8978
7.37259
0.000560066
-0.000364214
0.000249379
-0.000102406
194.775
-182.315
-101.4
105.802
1.81215e-11
1.80696e-11
1.87019e-12
2.43335e-11
1.21444e-11
-1.44614e-12
-2.01847e-11
1.5986e-11
-5.17475e-12
2.4567e-11
-2.20724e-11
1.10269e-11
-9.23852e-13
-1.10465e-11
-2.20117e-11
-1.15477e-11
-9.31021e-12
-1.0624e-11
9.12963e-12
118.863
-91.8501
-4.84173
-9.01275
-1.55872e-12
-8.57266e-12
6.96722e-13
-1.14943e-11
-1.2446e-12
-2.06252e-11
-2.93607e-12
1.16606e-11
-2.36637e-11
5.7023e-12
-8.88367e-12
-7.75917e-13
7.14994e-13
-5.93937e-12
5.00689e-12
-4.59638e-12
-1.77202e-11
8.64207e-13
-5.89267e-12
-1.58344e-11
1.60608e-11
4.70619e-12
1.13106e-08
-8.83261e-08
6.50716e-07
-14.4637
-70.959
80.0149
11.6061
5.66077e-12
-1.3413e-11
-1.1077e-11
3.16703e-08
5.77311e-09
-4.41922e-09
-1.30518e-11
-1.49729e-11
5.48111e-13
-9.80151e-12
44.7951
-42.8763
-222.115
218.204
-71.1535
84.5544
-19.6104
-0.00226173
0.00368378
-0.000765661
4.52766e-14
1.35611e-14
1.04018e-11
-8.40237e-12
-13.4854
-50.8949
2.06622e-12
2.25706e-12
6.16302e-12
-9.05508e-13
3.43568e-12
1.09468e-11
-2.02391e-11
6.23691e-12
-8.66029e-13
-7.11468e-12
-1.02041e-11
6.85327e-12
-1.37651
-0.751305
1.55124
1.2444
-2.59407e-12
1.57231e-11
-2.99675e-12
-1.75601e-12
1.02308e-11
1.28719e-11
-6.53736e-12
1.3037e-11
-3.53694e-12
-1.73706e-12
-2.83932e-11
-3.00236e-12
-14.3899
-1.27171
20.9315
4.59583e-13
4.99394e-12
-3.68035e-12
-6.87005e-12
7.39081e-12
8.62742e-12
-1.01994e-11
9.59839e-12
-3.82779e-12
-4.70008e-12
1.10058e-11
-9.91394e-12
1.0566e-11
-7.92689e-12
6.96378e-12
-0.000577212
-0.00124218
0.00358707
-3.06756e-11
-1.26221e-11
-3.23228e-12
1.16754e-11
-9.96307e-13
2.35963e-12
-3.05194e-12
-5.8799e-12
-4.68895
-9.87432
9.84034
8.70718
21.6204
-3.39517
-6.30688
-5.94135
4.35971e-09
-1.16689e-08
2.94125e-09
8.79886e-08
-4.93133e-12
-2.31393e-12
-1.64936e-12
-9.49396e-12
-1.34896e-11
-3.09463e-12
-1.31146e-12
-7.69342e-12
3.04112e-12
7.48346e-12
1.12047e-11
-1.9455e-12
3.61965e-12
-6.22512e-12
2.77918e-12
-2.36129e-12
1.1473e-12
-5.04233e-12
-2.0621e-12
8.67998e-13
1.01754e-11
-1.11193e-12
-2.06877e-12
-6.35801e-12
1.05509e-11
3.62452e-12
-7.93993e-12
-6.90033e-12
1.03694e-12
-4.09101e-12
-4.53377e-12
1.60961e-11
-9.82719e-12
-0.0095911
-0.0956354
0.285183
-0.122754
-0.529643
0.203613
0.711138
-0.191947
6.55052e-12
1.40364e-12
4.45552e-12
-6.83801e-12
6.38361e-12
1.20157e-11
-1.11805e-11
0.0737025
-0.0463843
-0.111698
0.120141
3.77513e-08
1.20637e-06
-9.54288e-08
0.0047025
0.00126551
-0.00211625
-0.00185132
-7.02161e-12
8.8127e-12
-2.04882e-11
7.67352e-12
-4.43613e-12
-2.35562e-11
-2.30635e-12
-9.66508e-13
1.00924e-11
-1.48702e-13
-1.26146e-11
2.11396e-12
-3.89021e-12
6.87123e-12
-1.24876e-05
-1.65647e-05
0.000101525
-1.62206e-05
1.621e-05
2.10661e-05
-2.51399e-06
-7.37361e-06
0.206853
-0.106258
-3.36236e-12
-1.09031e-11
-6.72137e-12
8.20239e-12
-16.0436
11.4511
10.1822
3.62737
1.0708e-11
-7.62042e-12
8.10891e-12
-1.05525e-11
-2.26671e-12
3.95928e-12
-9.09878e-13
-3.1944e-12
-0.957573
3.89318
-1.59806
0.630844
-0.457618
-0.5748
0.650925
0.00145141
-0.000251362
-0.000633769
-0.000444985
0.0010536
-0.00155862
-0.000589753
0.00164365
7.6877e-12
1.14743e-12
6.47352e-13
2.63316e-12
-4.34124e-12
2.53208e-12
1.12781e-12
-1.78171e-11
3.01304e-12
-4.77932e-13
2.14737e-12
-6.32696e-12
-4.11919e-12
3.4333e-12
-9.71027e-12
-3.90622e-12
0.33229
-0.760497
1.2417