/*--------------------------------*- C++ -*----------------------------------*\
| =========                 |                                                 |
| \\      /  F ield         | OpenFOAM: The Open Source CFD Toolbox           |
|  \\    /   O peration     | Version:  2312                                  |
|   \\  /    A nd           | Website:  www.openfoam.com                      |
|    \\/     M anipulation  |                                                 |
\*---------------------------------------------------------------------------*/
FoamFile
{
    version     2.0;
    format      ascii;
    arch        "LSB;label=32;scalar=64";
    class       volScalarField;
    location    "0.2";
    object      alphat;
}
// * * * * * * * * * * * * * * * * * * * * * * * * * * * * * * * * * * * * * //

dimensions      [1 -1 -1 0 0 0 0];

internalField   nonuniform List<scalar> 
32842
(
0.000827843
0.000827722
0.000830387
0.000830385
0.00102574
0.000830385
4.78362
5.32523
0.000830385
0.000830385
1.00545
0.726291
0.000830385
0.000830385
0.000830009
0.000830085
0.000830385
0.000830385
0.000828496
0.00101967
0.00104937
0.00103652
0.00101214
0.000830387
0.00100649
0.000830385
0.000830385
0.000950967
0.315494
0.000830383
0.329537
0.654781
11.1995
0.000830372
14.2972
8.97519
0.00101082
0.000830381
0.000829767
0.000829276
0.000830386
0.00104711
0.000830385
0.000830385
0.461979
0.000830384
1.37286
0.000828921
0.00103866
0.123672
5.77622
0.000830385
0.815109
0.0846453
0.000830386
0.000907668
0.000830385
0.0395663
0.000830385
0.000830385
5.66824
0.782388
0.871962
0.00104905
0.000829336
0.00196309
0.000830385
0.962821
0.605609
0.000828501
0.000944274
0.0502025
0.688801
0.000830385
0.000830385
0.000827255
0.117845
0.000830385
0.687157
1.58983
0.00102335
0.000830385
0.000830385
0.763934
1.0709
0.000830385
0.000830385
0.00197223
0.106541
0.000830385
0.00102598
0.00103726
10.5319
0.000830315
0.000830385
0.000829759
0.668098
0.0008301
0.991269
0.000830385
0.000830385
0.00106957
0.000826293
0.231855
0.683274
0.62682
1.12577
0.000826701
0.729494
0.000829101
0.000830385
0.000830385
0.00913704
0.000830385
0.000826
0.0010421
0.749007
0.150595
0.000826023
0.00082934
0.000830385
0.000830385
0.0375389
0.000830386
0.000817905
0.680122
0.548049
0.000830366
9.07204
0.000830386
0.000830385
0.000828289
0.00131123
0.682675
0.00123876
0.000829914
0.000829882
0.064076
0.000829145
0.000830608
0.733463
0.000830382
0.72864
0.000954719
0.000828675
0.000830384
37.9882
0.000830384
0.000830385
0.000830385
0.000829579
0.237905
0.000984499
1.71264
0.000829498
0.000830385
0.000830385
0.000830382
0.000828751
0.000830385
0.000827904
0.000830385
0.00100811
0.000830385
0.00082946
0.00083038
0.000830385
0.000830385
0.000829386
2.49413
0.000662208
0.00109926
9.77158
0.000830385
0.00105408
1.72212
0.000830384
0.000827212
0.000830385
0.000830385
0.000920111
0.000830385
0.000830385
0.000830385
0.753609
0.000830385
0.694805
0.000830385
0.000829385
0.000830385
0.000830385
0.14427
0.593875
0.000830385
0.616796
0.000830316
0.000830382
0.000830338
0.666297
0.000830385
0.000830062
0.000830352
0.145868
0.0711146
0.000387167
0.00190211
0.000828839
0.00104928
0.62217
0.000829508
0.000828102
0.00083399
9.85133
8.01797
0.000830385
0.000830385
0.000829836
0.000829691
0.000828647
0.000830452
0.140082
0.000830385
0.000830385
0.000828611
0.00111644
0.523241
0.000830386
0.643094
0.000827963
4.45886
0.000830385
0.000830385
0.000830315
0.000830385
10.0006
0.00102096
0.00102754
0.00084513
0.000830087
0.781167
0.014857
0.000830385
0.000829317
0.0332609
0.000828699
0.000830303
0.825902
0.000830385
0.000830385
0.000830386
0.000830385
0.000830385
0.000829527
0.667404
0.00083034
0.000830385
0.000830385
7.0344
0.000830385
0.000830384
0.000830385
0.000830385
0.000830385
0.000830386
0.509974
0.000830385
0.000830385
0.000830385
0.000830378
0.000830386
0.000830385
0.671011
0.000830385
0.516731
0.000830385
6.78549
0.000829801
0.00104667
0.000830385
0.00082927
0.000830385
12.9717
2.82599
0.000830385
0.000828203
0.00146195
2.11444
0.000830385
0.00104913
0.000830385
25.4063
0.000830386
0.602649
11.7293
0.153267
0.000823862
0.598037
0.000830385
0.000830324
0.00100462
1.89225
0.000830386
0.000830385
0.000830387
0.000830385
0.000830385
0.000830385
0.000830385
0.000830382
0.789166
0.000830386
0.000830385
0.776146
0.000830385
0.000830385
0.000830385
0.000830256
15.598
0.000830385
0.000830383
0.000829927
0.0398697
0.000830385
0.000897039
0.000830386
0.000830385
0.00082982
0.000830386
0.000827833
0.000830385
0.000829086
0.701984
0.000830385
0.000830385
0.000830385
0.000830385
1.30746
0.60786
0.000830385
0.000830385
0.000830384
0.000828817
0.000830961
0.000830385
0.786161
0.000830385
0.000830385
0.635751
0.904544
0.722487
0.000832028
13.4084
0.000828954
0.665803
0.000830385
0.000830386
0.00100911
0.000830058
0.000830385
0.000829629
0.000830385
0.000830385
0.000830256
0.19942
0.000830385
0.000830331
0.000830385
0.000830385
0.000848645
0.00099757
0.000830385
21.6435
0.000830385
0.00119522
0.000830385
0.732725
0.00103404
0.000830385
0.000828335
0.00101065
0.000827986
0.798813
0.680599
0.000830368
0.000829947
0.000830386
0.000830385
0.000830385
0.000830385
0.000830385
0.000830385
0.000830383
0.000830385
0.000830385
0.000829334
0.000830385
0.000827989
0.000829431
0.000829966
0.000829609
0.232769
0.000830385
0.000828158
0.000827895
8.77185
0.000830256
0.000830371
0.00117614
0.000830385
0.0010094
0.540704
0.000830385
0.000830385
0.000828263
0.000830385
0.000828839
0.000828608
0.000828175
0.000831425
24.8283
0.000830821
0.688972
0.000830385
0.00105215
2.3231
0.000830385
0.000830384
0.000830385
0.000817451
0.000830386
0.000827592
0.000830385
0.000830385
0.699546
0.00102204
1.33167
0.000828021
42.8843
0.00628884
0.741191
0.00104753
0.140989
0.00102092
0.755109
0.000830386
0.000828397
0.000917708
0.000830386
0.000992217
0.000828168
0.000830387
0.000830291
0.000830174
9.39979
0.000980592
0.000830354
0.000828332
0.00103275
0.000829778
0.000828753
0.000830229
0.00106202
0.000830385
0.000830385
0.000830385
0.000828669
0.000830384
0.760329
0.000830384
0.000829096
0.000830385
0.00106541
0.00102835
0.000830385
0.000828534
0.764409
0.710626
0.000830385
0.000830386
0.000830385
0.000830385
0.00102405
0.000828276
0.0527451
0.762582
0.000830385
0.000830386
0.971718
0.000828059
0.000830385
0.00101755
0.000830779
0.000922948
0.000832452
0.723071
0.00105202
0.580235
0.766065
0.000837323
0.000830379
0.00103877
5.03722
0.00083007
0.71736
0.00102854
0.987319
0.000981616
0.000830385
4.639
0.00103534
0.000830385
0.691576
0.000830377
0.678177
0.000830384
0.000830386
0.00102868
0.00117449
6.84496
6.4283
0.100023
0.163757
6.92446
6.19951
5.02063
0.740127
0.000828016
0.000830385
0.00082848
0.763256
0.154142
0.889695
0.00798235
0.000831091
0.000830385
0.000985037
0.19321
0.000830387
7.83684
0.019773
0.000831208
1.60948
0.000780246
9.40431
0.000830386
0.000830385
0.000830545
0.727753
5.61833
0.000830385
0.00106796
0.000830373
0.149837
0.603126
0.000830382
0.000827838
0.000830385
0.000830385
0.0306079
0.00226397
0.000830385
0.000830385
0.000829731
0.670084
0.0467862
0.955487
0.000828067
0.000830385
0.000830385
0.0856897
0.774279
0.581575
0.167044
0.59415
0.000830385
0.000682772
0.595454
0.000828336
0.110044
0.000830385
0.00102557
0.000830385
0.000830676
0.00102949
0.00101097
0.000830385
0.000830384
0.000830372
0.000829085
0.772265
0.00105414
0.000830385
0.000829784
0.0291555
0.000830385
0.00154339
0.195189
0.912636
0.000830157
0.000830385
0.0630685
0.138877
10.1489
0.000829998
7.94552
1.09876
0.115791
0.000831892
0.0995577
0.000830385
0.000830385
0.000830386
0.000830385
0.000830385
0.144127
0.00103325
0.000830385
0.000830385
0.000830383
0.000830385
0.000830169
0.000830385
0.000830424
0.166628
0.94517
0.00082978
0.000830385
0.0809564
0.195507
0.032897
0.00083029
0.232621
0.000830385
0.000830385
0.000830195
0.10135
0.690593
0.000830385
0.00101675
0.000830385
0.107885
0.000830385
0.000830385
0.000830385
0.000830387
0.31261
0.000830385
0.000830385
0.00137073
0.198453
0.000828423
0.000830385
0.000830385
0.607855
1.07793
0.000830385
0.698231
0.00101882
0.000830385
0.000830385
1.45524
0.675468
0.000830385
0.975743
2.26473
0.000830422
0.000631892
0.000830383
0.000830385
0.00103907
0.00103261
0.000841233
0.000829977
1.10194
0.000830385
0.00078999
0.000830385
0.000830385
0.17309
0.221881
0.000746858
0.000922233
0.000830385
0.000830385
0.000996396
0.00101425
0.136365
0.62388
0.0737152
0.182209
0.000828254
0.000828474
3.02942
0.000830385
0.129595
0.000829674
0.000830216
0.853214
0.643202
0.000830316
0.000830142
0.000830385
0.000830385
0.000829919
0.000830385
0.00082831
0.000830385
0.000830385
0.792835
0.000830385
0.000830353
0.000830385
1.24586
0.000830385
0.000830339
0.000828021
0.594709
0.000830385
0.000829086
0.000826807
0.000830385
0.000830205
0.000830386
0.000830446
0.000830333
0.000830384
0.000830374
0.00082873
0.000586671
0.000830156
0.0010381
0.000910387
0.00106227
0.000830385
0.00103554
0.00122753
0.576662
0.0008293
0.000829173
0.000990691
0.112396
0.000830385
0.529869
0.00101209
0.000830385
0.000830385
0.000832855
0.000830047
0.000830056
0.808745
0.000830385
0.000830385
0.000829478
0.00104866
0.674219
0.000829038
0.00101657
0.000830385
0.000994922
2.32522
6.01939
0.00100012
0.000830299
0.90312
0.000830385
0.000830385
0.000830385
0.000828743
0.000829802
0.000830203
0.200758
0.000830385
0.000831942
0.814888
0.00102007
0.000830383
0.000829138
0.000830385
0.90123
0.00108114
0.735801
0.000831055
0.593501
0.535344
0.00102847
0.000830386
0.000984465
0.000830355
0.00106461
0.000830377
0.000830385
0.0010435
3.69474
0.660286
0.000830281
0.0177544
0.000830302
0.558442
0.000830502
0.000830385
0.000830385
0.000830385
0.000829925
0.00083013
0.0008302
0.000830385
0.000830385
0.000829746
0.000829924
0.000828881
0.668712
0.000831016
0.140036
0.000828555
0.000828024
0.00102818
0.0184139
0.000827818
0.000829667
0.00104476
0.000830385
0.000828439
0.000830387
0.00110909
0.898421
0.000830385
0.000830385
0.00082826
0.000830291
0.000830385
0.000828874
0.000830385
0.000830385
11.5768
0.000830385
99.8242
0.000828627
0.000830384
0.000829402
0.000829912
0.00100072
0.000829248
0.000830385
0.000830385
0.000830385
0.173701
0.000830385
0.00082811
0.72516
0.000830188
0.674626
0.000830385
0.00422682
0.00083006
0.000830353
0.919003
7.70696
0.000828376
0.000829964
6.54887
0.0010244
0.000830385
0.00083037
0.000830385
0.000830384
0.000830382
0.666226
0.564021
0.689426
0.000830385
0.740434
0.000830385
0.000829914
0.000829502
0.000963202
0.000912559
0.000830385
0.000827876
0.000830385
0.000828389
0.000827612
0.000830385
0.000830143
0.000829953
0.000830928
0.00532236
0.00102755
0.000830385
0.154992
0.232558
0.000830385
0.000686427
0.0936526
0.000830385
0.000830385
0.000828622
0.520339
0.000830385
0.000830385
0.647076
0.00103783
0.000830385
0.000830385
0.000830385
0.000830383
0.00091217
0.171527
0.000830385
0.000830385
0.573695
0.000830385
0.000830385
1.94638
0.000828109
0.000830385
0.000830386
0.000830385
0.660496
0.000828391
0.000828315
0.000830385
0.000830386
0.00109454
0.000830385
0.573006
0.00102692
6.9068
0.000830385
0.000830385
0.000830385
0.000830056
0.000828963
0.000830385
0.0746401
0.163846
0.000977384
0.00348178
0.000830385
0.000999756
0.000830385
0.000830385
0.000830362
0.000830385
0.000830384
0.000830385
0.000830385
0.000830385
0.000828014
0.000830385
0.353508
0.000828727
0.946074
0.000829041
0.787519
0.764813
0.000830385
0.00100818
0.770665
0.069215
0.0611302
0.00281605
0.000828033
0.000830386
0.000830385
0.000830386
0.0715077
0.000830386
0.163483
0.0293325
0.0107508
0.0165954
0.000914269
3.90927
0.000830385
0.190533
7.8611
0.000830385
7.10236
0.000837613
0.000831567
0.000830385
0.000830385
0.648082
0.000829499
0.711367
0.00103419
40.8949
0.500533
0.802872
0.00116101
0.000830385
0.000828993
0.000829462
0.000829954
0.000830789
0.000830385
0.000830385
0.000827973
0.075728
0.00109738
0.000829676
7.00904
0.000830263
0.00082868
0.000829793
0.000829304
0.395546
0.148672
0.000829748
0.00082923
0.000828725
0.701327
0.101476
0.000828432
0.00328616
0.736979
0.017554
0.000830778
0.000830031
1.08811
0.796423
0.000830292
0.000830385
0.000830385
0.000829817
22.4765
0.00083022
0.524733
0.000830188
0.000830385
0.000830385
0.000829622
0.00084823
0.0285703
0.000830372
0.000828331
29.5601
0.13344
0.639085
0.000830359
6.06598
2.18083
0.000830385
0.000830386
0.000830176
0.925124
17.5531
0.000830385
0.000961792
0.000908057
0.000830377
0.000878009
0.04238
0.000829582
0.000830385
0.000830386
0.000830385
0.158473
0.000830462
0.000830098
0.000308489
52.7158
0.000929088
0.000898337
0.000866169
0.000827789
5.64869
0.502558
0.000829159
0.879339
0.409843
4.02146
0.00085693
6.25831
0.886082
0.000830055
2.85475
0.646767
0.000642558
0.000828742
0.000830159
0.000830385
0.000828642
0.000829558
0.000830314
0.000829986
1.51043
0.000830385
0.000830385
0.00514347
0.000830385
0.000830198
1.4453
0.105041
0.00097809
0.000852871
0.000828584
0.176678
4.58453
0.647196
0.000829612
0.000828328
0.000829867
0.126828
12.8141
0.00108524
0.0008358
16.7792
0.000829014
0.0207191
0.000826118
0.000830384
0.316244
0.00109381
0.000830797
0.0107638
0.000829676
0.000830259
0.15112
20.8627
8.4334
0.000830445
0.00082884
0.000830385
0.000828508
0.000831307
0.000828481
0.000860375
0.000830385
0.000830385
5.54581
0.000828342
0.000829531
0.0675692
0.000830385
2.94704
8.3945
0.000830385
0.000829187
6.59402
4.39929
1.6129
0.019523
0.000829013
7.5868
0.119584
0.00118052
5.01371
0.000832823
0.839545
0.000829926
0.000830385
0.000827972
0.203798
0.00122962
0.000828348
0.0313492
0.634881
0.021089
0.133741
0.000830385
0.0602721
0.25007
0.000901599
0.000830385
0.000830385
0.00084357
0.000827961
0.000827997
0.245241
0.000828305
1.51679
0.00325964
0.00143585
0.000899673
0.000829546
0.000829512
7.03567
0.342676
0.000830386
0.000829834
0.000830385
0.209225
0.000830585
0.246622
7.77773
0.000830738
0.281144
1.64075
0.00974191
6.47624
6.75704
2.18709
0.000830781
0.765683
2.64433
0.000840944
0.000974228
0.000830385
8.06703
0.000830647
0.000828713
0.00132213
0.000835865
0.662283
0.000879828
0.00103569
0.805229
4.852
0.000830016
14.8521
0.00112581
0.811091
0.948727
0.00083047
0.000559011
0.31186
8.99434
0.00112581
0.000830385
0.806664
0.000830385
0.00099204
4.69241
0.001013
0.000828571
0.646129
0.0896578
0.00083033
0.161447
0.000830385
0.000830385
0.000830364
0.000829651
0.140194
0.00100103
0.000830385
0.158022
0.513957
0.00083021
0.000828743
62.4459
0.000830365
0.000830385
0.000829161
0.132411
0.906701
0.000829753
5.0434
0.000830385
2.99284
0.305664
0.000834554
0.664441
1.11349
0.0117031
0.00161424
0.000828312
0.356343
0.000786636
0.222959
6.00348
0.00139708
0.00105079
0.0241203
0.000830385
7.64512
0.000830179
0.638571
0.000830209
0.0064614
0.000828293
0.00104216
0.000902857
0.0991927
0.253324
0.00103795
0.000828245
7.02264
0.604187
0.000830255
0.000830385
1.62889
0.0964472
0.000830386
0.859511
0.000830726
0.000833795
0.000282674
0.864483
0.000829487
0.000828641
3.34779
1.60545
0.00102262
0.000829621
0.00107084
0.000830367
0.000829394
0.0780103
0.000830385
0.686389
0.612169
0.000829787
0.00777964
0.000830385
0.352663
1.0676
0.000830385
0.00126593
6.38031
0.000830385
0.000830385
0.000830268
0.230063
0.000830385
0.000830796
0.000828401
0.00106872
0.000831075
0.000831888
0.000829147
0.000830385
0.000829262
0.000827931
0.000830385
0.000830288
0.000829418
0.000829818
0.000829813
3.89369
0.000829589
0.000828398
3.83903
0.000813748
0.000828241
0.00082825
0.000828681
0.000830385
0.00106872
0.000499747
0.000830381
0.000829152
0.000831026
0.00083463
0.149382
0.316531
0.00120294
0.555026
6.44129
0.000828151
0.000830379
7.90896
9.79195
0.00102957
0.865336
0.000828942
0.000830384
1.05187
0.00103376
11.881
0.00100633
0.00109048
0.000974758
0.000830372
10.3718
0.000829305
0.000830387
0.00109438
8.54319
0.442258
0.508574
8.2584
0.00101353
0.000997897
0.00222125
0.000829534
4.67218
12.0506
0.00100589
1.49014
0.000830385
1.09089
0.000830377
0.000836581
0.000830319
0.00920676
0.000830385
3.36022
0.000828935
0.000828481
0.00109281
0.672022
0.169761
0.000827469
0.000830385
0.000829342
0.743779
0.000828618
0.000830385
0.579997
0.000830385
7.1934
0.000830362
0.000828787
0.000832083
0.000830141
0.000829236
0.000830385
2.09383
0.000830206
0.00537024
0.277676
0.000827511
0.000827719
0.000830649
0.000829969
0.000827732
0.000830233
5.0743
0.000830154
0.000830266
0.000830385
0.00105287
0.526749
0.000830381
0.000829805
0.000830385
6.73349
0.000830385
0.000830988
0.000830975
0.000830523
0.000829868
0.787271
0.000829123
0.000829048
0.000829892
3.35081
0.000831396
0.000829605
0.000830133
0.778169
0.000828551
0.000830081
0.000836813
0.00082915
0.000831176
0.000830378
0.126474
0.000830385
0.000830329
0.000812379
0.0127541
6.38434
0.000829882
3.88241
5.94273
6.9999
0.000828607
7.28937
0.000837047
0.000998652
0.000829423
6.63477
7.68119
0.000830319
0.000830387
0.000829344
0.000828398
0.00289435
13.597
0.000830385
0.000830385
0.000821834
0.000829612
0.00082874
0.606138
0.000828092
4.74049
13.4586
0.000830385
0.000834488
0.25234
0.000831105
0.000804661
0.000830385
0.000830297
0.632207
0.000828129
7.81025
0.000830336
0.000831036
0.000828349
0.834373
0.00107911
0.000830385
0.000830385
0.000830385
0.000830385
0.000830225
0.000830116
15.9296
0.000830385
0.00083805
0.000833974
0.00133589
0.000830358
0.137122
0.869644
0.000830373
0.0706805
0.0557632
0.00114218
0.000829408
0.000830385
0.744847
0.000654162
0.119538
0.0692826
0.000828693
0.000830385
0.00129369
0.000830211
0.000848348
0.000830385
0.000830136
0.00104361
0.00702532
0.000828788
0.000830385
6.03529
0.000830385
0.00083002
0.000830385
0.000830385
1.22347
0.786976
12.1741
0.000830385
0.000830317
0.000829929
4.60918
0.000835281
0.649843
2.55042
0.00105715
0.000830057
0.000829179
0.000828536
0.000830385
5.9098
5.23293
0.000830385
0.000828488
0.000830059
0.000830385
0.658272
0.000830385
0.739914
0.000830385
0.77445
0.0010448
0.000511935
0.000830385
0.000830385
0.000830385
0.000828796
0.000829323
0.000828162
0.000830385
0.633637
0.00082889
0.000141353
0.232839
0.00703446
0.000830385
0.000829266
0.000830386
0.000830385
0.000830245
6.43341
0.000830385
0.000830177
0.000830365
0.817638
0.000795096
8.52176
0.0490079
8.77983
0.699988
0.00132105
15.0816
0.000827458
0.619912
0.000827748
0.000827413
0.00110687
0.207821
0.447106
0.00193631
0.000829182
0.698799
1.39038
0.000830385
0.000830385
0.000830213
0.000830294
0.000829661
0.000829323
0.000998247
0.517789
0.000830386
6.01981
0.99825
0.000830385
0.000830385
0.000830385
0.000829553
0.000830385
0.000830385
0.000830381
0.00105129
0.687649
0.000829347
0.000840112
7.14675
0.000829834
0.00327172
0.748356
0.000830293
0.00103539
0.000842874
0.00082937
0.00103512
0.00106061
0.000862542
0.920698
0.000826254
7.77553
0.000830385
0.000830385
0.000841112
0.000830367
0.00083115
0.000828131
0.000830385
6.5462
0.000830386
0.000830788
0.000830261
0.000830385
0.00083008
0.000829568
0.000830244
0.00082799
0.842969
0.000830385
0.000828683
0.000828336
0.000833944
0.0008302
0.000830385
118.782
0.00082747
0.000829007
0.553659
0.000828617
0.000830244
0.000827549
0.000841785
0.00385999
0.396683
0.000830206
0.000830385
0.00101232
0.000828755
0.000830118
0.000828314
0.0384586
0.000828338
0.000830309
0.000830384
0.150149
0.000995961
0.000829227
0.00104002
0.000828269
0.855089
0.00102762
0.000830711
0.000814998
0.000830386
0.000830385
0.000830237
0.000830385
0.000830385
0.000828764
0.00105945
0.000830385
0.000829305
0.000832406
0.856915
0.00663952
0.000830386
0.000828455
0.00109101
0.000829604
0.0774877
0.611519
0.0250223
0.000832944
0.000827221
0.0010544
0.000830385
0.000830525
0.000830386
8.9876
0.536301
0.00104789
0.679566
0.989941
0.000829672
0.000830386
1.08513
0.000830385
0.000830183
0.0782585
0.00100752
0.000828896
0.000830384
0.000829215
0.000830349
0.000829493
0.000828271
0.000830385
0.000830075
0.857597
0.00083037
0.000830385
0.000830341
0.000830213
0.000830385
0.206427
0.289254
0.00105926
0.000829744
0.001019
0.00154904
0.000830368
0.000830385
0.000830341
13.2936
0.674349
0.603141
0.000830203
8.44898
0.000830383
0.000829811
0.296
0.565231
0.000830693
0.00082717
0.000830385
0.000828072
0.000828783
0.000830256
0.000830203
0.000830479
0.000841075
0.0522345
0.96055
0.000828034
0.000828027
17.4412
0.00082812
10.9526
0.000830385
0.00101242
0.000830244
0.000830385
0.000830385
0.000610664
0.148137
0.000826041
0.000828506
0.000830385
0.000830385
0.000679368
0.000830137
1.12165
0.000998048
7.10868
0.597738
0.000830385
7.19357
0.000830385
0.000830351
0.000830385
0.000830385
0.00083034
0.00082886
0.805176
0.000830384
0.00135178
0.000830385
0.000829723
0.000829886
24.4534
0.000830355
0.000830115
1.10385
0.790966
0.000830385
0.000829149
0.000830383
0.000830191
0.00736229
0.000830385
0.788593
0.00082877
0.000829917
0.0021745
9.62325
0.000830444
0.000820885
0.000829693
0.000828408
0.000830385
0.000830385
7.28978
0.000830382
0.000830385
0.00118149
0.000830385
0.000830339
0.000830186
0.000830386
0.000826178
0.00148177
0.000830385
0.000827079
0.000307329
8.16073
2.44454
0.000830385
0.000830385
107.636
0.000830385
0.000831754
0.990319
0.000830128
0.263636
0.390015
1.33389
0.742716
0.000829491
0.000831231
0.000828629
0.000830385
0.000830938
0.661118
0.000828691
0.635325
0.000830162
0.00880243
0.00549025
0.000828661
1.92858
0.000829049
0.000830773
0.000862133
57.8981
0.925518
0.000830385
0.730629
0.000829723
0.000830385
0.000830385
0.000830069
0.00083026
0.000830385
7.21404
0.679322
0.000830151
0.000830118
0.000830499
0.000830385
9.75835
0.000830385
5.01761
0.000830385
0.000830385
0.000828905
0.00100868
0.000830146
0.151624
5.21468
0.000830113
0.000829325
0.000830385
6.37193
0.000829279
0.000830385
0.000828717
10.1356
0.000830367
0.000830385
0.000830386
0.000830893
8.22249
2.97736
4.24393
0.00848848
20.2055
0.000829283
0.000829987
0.000826841
0.000871837
0.000828293
0.000828031
3.96459
0.000924932
0.0985702
0.000828944
0.000830044
0.717181
0.658922
5.08199
0.000830385
0.000829503
14.517
82.478
0.00315461
9.28023
0.097188
0.000830385
0.000829729
4.12813
0.000830378
0.000830385
0.0010187
5.6335
0.000703058
8.13172
0.736847
7.3403
0.000829041
0.148074
8.11792
0.000829199
0.000829869
7.74627
0.000828056
0.000828193
0.000830385
0.0008288
0.000830124
0.000926333
0.000827359
0.614573
0.000830271
0.000830385
0.000829046
0.000829294
0.000971062
0.0143374
0.000828605
0.000830279
0.000830384
0.280979
7.17853
0.000829791
0.00082971
0.000819974
0.000828072
0.000830785
0.000830385
0.000830384
6.10285
0.000831593
0.123504
0.000830385
10.761
0.000830357
0.00277661
0.000597807
8.11211
0.000830385
0.000832718
0.000313749
0.000830291
0.000830385
0.000829046
0.000830384
0.000828176
0.000844966
0.016144
9.08337
8.932
2.47396
0.00101939
0.279385
0.00102531
0.00108569
0.000830385
0.000830385
0.00102239
0.000830366
0.000991034
0.000830385
0.000828648
0.000829151
0.00100585
0.000830382
0.000834318
0.00107016
0.000830385
0.000830385
0.000830376
0.000830362
0.000830084
0.000830385
0.514452
0.000830384
0.000829745
7.8561
0.000830361
8.42745
7.10857
0.69134
5.18544
0.679726
7.61937
0.751647
0.000830385
0.000830385
0.000830372
0.601666
0.000830385
2.95308
0.000828818
0.000827702
0.000830385
0.000830382
0.00083038
0.000828569
0.000829748
0.000827268
0.000830383
0.795571
0.000830359
0.000830385
23.2324
0.000826131
0.000829377
5.41498
0.572898
0.000830385
0.000830383
0.000830385
0.986063
8.7653
9.0607
3.31472
10.6558
0.000829631
0.000830385
0.000830385
0.000829587
0.000830301
0.000830385
0.000999436
0.000830385
0.000830385
0.000830385
0.000829153
0.000828942
0.000828084
0.000831854
0.000830223
0.146288
4.91404
7.77544
0.0124412
0.133331
0.000829866
0.000828984
10.2745
0.000822501
0.000830385
9.14329
0.00103177
0.000829386
0.0008304
0.00134672
1.07667
0.0717491
0.000829456
0.000830385
0.00101995
7.60473
0.000830385
0.000830202
0.000830385
0.0136786
0.000814597
0.000830909
0.00111375
0.000830385
0.000830386
0.000830385
0.000828321
0.000828692
0.000829538
0.000829515
0.000830298
0.000830384
0.000829418
0.000829522
0.000828653
0.000829267
0.000834477
0.000830385
0.0108035
0.000842122
11.5161
0.139026
0.68927
0.745785
0.00165914
0.000758992
0.000830385
0.000829737
0.000828315
0.128717
0.349653
0.588614
0.000831129
6.25149
5.17118
0.0005929
0.00127093
0.00101281
0.000611932
0.000826377
6.83622
0.0122856
0.253231
0.000830332
0.000830384
0.000829618
0.000829595
0.630267
0.000838571
0.00373474
0.000613873
0.000825783
0.000829605
0.000828499
0.000830214
0.000834665
0.000894642
0.000828653
0.000828553
0.995084
0.000624908
0.000830385
0.000828746
0.000828243
0.000829653
0.000830385
0.000830326
0.695447
0.000830386
0.000830385
0.000830385
13.9174
0.000826627
0.000832754
0.0008367
0.000829973
5.55488e-05
0.000829942
0.000830943
0.000828844
0.000858316
0.39782
0.20221
0.000831019
0.000634323
0.000827733
0.000828603
4.53406
1.18598
2.82918
0.0137937
0.905334
0.000830385
0.00285902
0.000830385
0.000830385
0.000830385
0.000827088
0.000830385
0.182987
0.000829864
0.313764
0.0159884
0.000830779
0.000829357
0.00134015
0.000830245
0.80631
0.000830385
0.00224997
0.000830385
0.000827875
0.000755541
0.000830354
0.000828575
13.1845
0.000829866
0.00083024
0.000828734
0.2402
6.56388
0.000830174
0.0440833
0.000830309
0.000829391
0.0008296
0.000830386
0.000830294
0.000828765
0.000828215
0.000830385
0.000830105
0.000829796
0.00552963
0.000830386
0.000653311
0.000828323
0.0016422
0.00104461
0.206239
15.5325
0.000830385
0.000830385
0.000829569
0.0564805
23.5642
0.000830385
0.000827584
0.0202112
16.0787
0.000826396
0.221092
0.000447901
0.000827895
0.590813
0.616179
0.000825389
0.000829283
0.000831369
0.000827816
0.815537
0.000826669
24.5295
0.000830385
0.000830379
0.66075
21.601
0.000829438
17.0571
11.7573
0.000830139
0.000829029
0.00105247
0.000829153
19.4911
0.00107537
0.000993199
0.00105662
0.000829542
0.000828491
0.783571
0.00197562
0.000828359
0.000829391
0.000828763
0.000830378
0.000830385
0.000830385
0.649867
0.875469
0.365505
0.000830385
0.000828248
0.000830385
0.000831081
0.000830129
0.000829825
0.000829224
0.000830954
0.00617928
0.000828534
0.522147
0.645572
0.000830385
0.000829752
0.00082813
4.65857
0.000830385
0.000829871
0.00110122
0.788734
0.000830627
0.000830385
0.000829354
0.000830376
0.000827194
3.8954
0.000828849
0.000830974
0.128391
0.0189998
0.000830014
1.78192
0.000827904
0.000833324
0.000841454
0.000829108
1.25434
0.000829899
0.000830301
0.000830868
0.000826102
0.000826651
0.000826704
0.00107334
0.000826796
0.000915369
0.000826893
0.000833211
0.000831203
0.000830124
0.000826127
0.000829018
0.00112601
0.579276
3.32253
0.000833477
0.000828741
0.000998433
0.000830383
0.00112334
0.86523
0.000344374
0.00104029
0.297807
0.000830661
0.00125238
0.000877486
0.000830385
1.87819
0.868856
0.000795848
0.00103773
0.00100441
0.437501
0.000830133
0.000829048
0.00082806
0.0525029
0.000826511
0.000829737
0.00835989
0.000830878
0.000831079
0.00110926
0.196769
26.5558
0.000830021
0.443093
0.000830126
0.441748
0.000830577
0.000830223
1.03485
0.000829532
0.00114792
0.676163
0.000828637
0.00107851
10.3096
0.000829592
0.0819242
0.000830417
0.778044
2.89248
0.000961116
0.000829682
0.000821168
0.0797763
7.30549
2.31119e-10
0.000828696
0.000829696
6.35611
0.000830371
0.000830273
0.00680007
0.00101985
0.00105407
0.000829783
0.000827888
0.000829143
0.772316
0.00083149
0.000829622
0.000830385
0.135434
0.000830006
0.000830385
0.000838349
0.00121086
0.000828306
0.000830182
7.80618
6.79489
0.000830385
0.000830361
0.888051
0.0281106
0.000829401
0.371573
0.000988326
0.00117187
0.0721771
0.000828549
0.000845862
0.00101218
0.000830316
0.000829678
0.60772
0.000827613
1.30077
0.000827771
16.5751
0.161536
0.00272133
0.497511
0.000833951
0.00477958
0.472338
10.0789
0.49487
1.03176
0.695404
0.000829282
0.000828772
0.719577
0.000830383
0.000828441
0.658674
0.178625
0.000830213
0.000828804
0.000829811
0.000829924
0.00105037
0.652991
0.00082903
0.0296115
0.000829936
0.000828125
0.492339
0.822329
7.31002
0.000830023
0.990995
0.580272
0.00187548
18.3284
0.000830387
0.000830229
0.000830235
0.000829571
0.00100789
0.00116473
0.00083024
0.000829404
5.15529
8.43475
0.0010496
5.46729
0.65423
3.39174
0.00100007
9.97728
0.000829041
8.3961
0.00101784
0.661709
0.000830334
0.000830385
0.362553
0.000830385
0.000830385
0.000830315
0.000830385
0.000830385
0.00100668
0.650771
3.49611e-05
0.000830385
10.2858
5.7959
0.00100384
0.000830385
0.000830385
0.000829678
0.000830332
0.134649
0.000830024
0.90747
0.905818
0.000830386
0.000830385
9.93654
0.142216
1.25712
0.809783
0.000828339
0.00106714
0.75356
0.000830385
0.000830385
0.000830361
1.11935
0.000830385
0.000830385
0.000830385
0.000830385
0.00103496
0.000830386
0.000830572
6.267
0.000916108
0.00117552
0.000829861
0.690348
0.770611
11.9062
0.000571585
0.000830385
1.08728
0.000830385
0.000830386
0.000830386
0.892625
0.000830385
0.00105148
0.797903
0.000830385
0.000830385
0.621152
0.000830386
0.000830385
9.8811
0.80964
0.000831923
0.81922
0.000830385
0.000830385
0.000830385
0.000830385
0.000830385
1.75133
0.000830385
1.1354
0.00102733
0.000830385
0.000830385
0.732036
0.000830303
0.601251
0.00101407
0.000830385
0.000830385
0.000830386
0.000830385
0.00099692
0.682633
0.000830385
0.00104377
0.700903
0.000830385
0.000830385
0.00101536
0.000830386
0.000830385
0.00102099
0.00100817
0.000830385
0.000830386
1.9459
0.627787
0.00103713
0.638625
0.777134
0.000837814
0.823828
0.000830385
0.000830385
0.000830385
0.000830385
0.000830385
0.000830043
0.000875015
0.000830386
0.00101349
8.0303
0.00103297
0.000829465
0.000830385
8.50449
0.034356
0.000997222
0.83048
0.000830385
0.057097
0.000830385
0.000830385
0.000830385
0.000830386
0.581829
0.000830386
0.776719
0.000830385
0.000830385
0.000830385
0.000830385
0.00103763
0.000996162
0.643122
1.02101
0.000830385
0.000830385
6.75017
7.5503
0.000830385
0.000830385
2.24
1.09937
0.000829298
0.807399
0.000828248
0.000830387
0.000830385
0.000830385
0.000830385
0.00100385
0.854841
0.918687
0.000830385
0.000830385
0.00102473
0.000828763
0.63858
0.000830374
0.000830385
0.000828256
0.00104556
0.00101142
0.0010401
0.000830385
0.000993043
0.753122
0.000830383
0.000828498
0.000826925