/*--------------------------------*- C++ -*----------------------------------*\
| =========                 |                                                 |
| \\      /  F ield         | OpenFOAM: The Open Source CFD Toolbox           |
|  \\    /   O peration     | Version:  2312                                  |
|   \\  /    A nd           | Website:  www.openfoam.com                      |
|    \\/     M anipulation  |                                                 |
\*---------------------------------------------------------------------------*/
FoamFile
{
    version     2.0;
    format      ascii;
    arch        "LSB;label=32;scalar=64";
    class       volScalarField;
    location    "0.2";
    object      epsilon;
}
// * * * * * * * * * * * * * * * * * * * * * * * * * * * * * * * * * * * * * //

dimensions      [0 2 -3 0 0 0 0];

internalField   nonuniform List<scalar> 
32842
(
0.176583
0.176713
0.176933
0.176932
0.189374
0.176932
1632.06
3070.12
0.176932
0.176932
676.706
166.609
0.176932
0.176932
0.176946
0.176977
0.176932
0.176932
0.176719
0.189005
0.19081
0.189974
0.188638
0.176933
0.188194
0.176932
0.176932
0.184872
0.170321
0.176932
10.164
0.173449
208.514
0.176931
668.763
4886.96
0.188356
0.176932
0.17685
0.176775
0.176933
0.19061
0.176932
0.176932
0.22951
0.176932
283.38
0.176725
0.190085
0.741031
921.032
0.176932
0.142434
0.56886
0.176933
0.175404
0.176932
0.39761
0.176932
0.176932
2958.87
0.147191
0.132245
0.190636
0.176783
0.151644
0.176932
0.123042
0.188588
0.176949
0.184345
0.567888
0.166095
0.176932
0.176932
0.176579
0.0122569
0.176932
0.167137
2876.04
0.189222
0.176932
0.176932
0.151359
0.110351
0.176932
0.176932
0.239807
0.0871877
0.176932
0.189389
0.190083
23.1882
0.17694
0.176932
0.176843
0.171447
0.176954
0.117325
0.176932
0.176932
0.191821
0.176731
10.9284
0.167558
0.18213
36.7918
0.176827
0.154744
0.177041
0.176932
0.176932
0.565339
0.176932
0.176762
0.190285
0.154396
0.43466
0.17655
0.176783
0.176932
0.176932
0.163562
0.176933
0.176432
0.168996
0.205198
0.17693
84.0141
0.176933
0.176932
0.177888
0.196662
0.162316
0.193692
0.176954
0.178555
0.554419
0.176757
0.17702
0.156442
0.176932
0.15822
0.191736
0.176723
0.176932
2470.26
0.176932
0.176932
0.176932
0.177855
0.42969
0.186904
719.97
0.176912
0.176932
0.176932
0.176932
0.176738
0.176932
0.176601
0.176932
0.188311
0.176932
0.176926
0.176932
0.176932
0.176932
0.176789
129.359
0.205001
0.190591
34.6273
0.176932
0.191005
57.0311
0.176932
0.177056
0.176932
0.176932
0.182613
0.176932
0.176932
0.176932
0.153545
0.176932
0.163983
0.176932
0.17679
0.176932
0.176932
0.407745
0.191808
0.176932
0.185095
0.176923
0.176932
0.176926
0.171641
0.176932
0.176886
0.176928
0.731489
0.423876
0.188994
0.215491
0.176713
0.190794
0.181761
0.176807
0.176623
0.177341
90.0211
67.0455
0.176932
0.176932
0.176854
0.176843
0.176687
0.177028
0.29199
0.176932
0.176932
0.176684
0.192002
0.215004
0.176933
0.17851
0.176608
731.338
0.176932
0.176932
0.176923
0.176932
738.088
0.189186
0.18959
0.183678
0.17689
0.14758
0.311759
0.176933
0.176781
0.443061
0.176716
0.176921
0.139201
0.176932
0.176932
0.176933
0.176932
0.176932
0.176899
0.172351
0.176926
0.176932
0.176932
40.2912
0.176932
0.176932
0.176932
0.176932
0.176932
0.176933
0.22243
0.176932
0.176932
0.176932
0.176931
0.176933
0.176932
0.172815
0.176932
0.217225
0.176932
1.33694
0.176849
0.190182
0.176932
0.176775
0.176932
9.78347
40.1071
0.176932
0.176645
0.218331
8.29153
0.176932
0.190736
0.176932
6342.19
0.176933
0.189091
124.553
0.0353381
0.176742
0.190217
0.176932
0.176924
0.18809
656.878
0.176933
0.176932
0.176933
0.176932
0.176932
0.176932
0.176932
0.176932
0.145571
0.176933
0.176932
0.14894
0.176932
0.176932
0.176932
0.176914
1333.8
0.176932
0.176932
0.176867
0.487141
0.176932
0.181367
0.176933
0.176932
0.176852
0.176933
0.176582
0.176932
0.176747
0.165707
0.176932
0.176932
0.176932
0.176932
0.0897935
0.188383
0.176932
0.176932
0.176932
0.176712
0.179205
0.176932
0.145934
0.176932
0.176932
0.178177
0.127325
0.158748
0.177184
7.38713
0.176771
0.171979
0.176932
0.176933
0.188443
0.176886
0.176932
0.17683
0.176932
0.176932
0.176914
0.404607
0.176932
0.176933
0.176932
0.176932
0.180109
0.187705
0.176932
6327.11
0.176932
0.191662
0.176932
0.154349
0.189509
0.176932
0.177718
0.188413
0.176612
0.143705
0.169101
0.17693
0.17687
0.176933
0.176932
0.176932
0.176932
0.176932
0.176932
0.176932
0.176932
0.176932
0.176831
0.176932
0.176607
0.176797
0.176873
0.176964
1778.87
0.176932
0.176625
0.176776
326.939
0.177018
0.17693
0.192351
0.176932
0.188407
0.201966
0.176932
0.176932
0.176663
0.176932
0.176716
0.176682
0.17663
0.177148
178475
0.177065
0.165583
0.176932
0.190888
5861.69
0.176932
0.176932
0.176932
0.176083
0.176933
0.176595
0.176932
0.176932
0.164849
0.189091
0.0864161
0.176606
13066.3
0.343998
0.155762
0.190681
0.847097
0.188539
0.153191
0.176933
0.176653
0.182674
0.176933
0.187321
0.177546
0.176933
0.176919
0.176971
6.70571
0.186619
0.176928
0.176646
0.189756
0.176914
0.17672
0.176952
0.191487
0.176932
0.176932
0.176932
0.176763
0.176932
0.151836
0.176932
0.177117
0.176932
0.191684
0.189465
0.176932
0.176674
0.151205
0.161898
0.176932
0.176933
0.176932
0.176932
0.189271
0.17664
0.652978
0.151515
0.176932
0.176933
0.119305
0.177123
0.176932
0.18871
0.177473
0.183008
0.177179
0.158066
0.190908
0.19581
0.150193
0.180257
0.176932
0.190126
58.0098
0.176992
0.160377
0.189578
0.117764
0.186731
0.176932
18.5755
0.189386
0.176932
0.165973
0.176931
0.168
0.176932
0.176933
0.189207
0.191649
10.8665
2872.74
0.126271
5.70981
27.5549
8.26609
5.85313
0.156111
0.176602
0.176932
0.176664
0.151897
0.295256
0.131254
0.290542
0.177106
0.176932
0.186864
0.375402
0.176933
18209.6
0.449883
0.177306
3699.33
0.174425
0.672942
0.176933
0.176932
0.177014
0.158208
534.825
0.176932
0.191803
0.176931
0.0269056
0.188704
0.176932
0.17658
0.176932
0.176932
0.493434
0.411052
0.176932
0.176932
0.176938
0.170398
0.639544
0.121985
0.176613
0.176932
0.176932
10.1085
0.150096
0.197188
0.21564
0.191727
0.176932
0.193434
0.191204
0.176646
0.449731
0.176932
0.189358
0.176932
0.177271
0.18961
0.188431
0.176932
0.176932
0.176931
0.176787
0.150373
0.191105
0.176933
0.176846
2.14261
0.176932
0.199466
0.341102
0.128151
0.17695
0.176932
0.269866
0.194331
673.452
0.176877
2.83727
0.105927
0.807237
0.178316
0.364842
0.176933
0.176932
0.176933
0.176932
0.176932
0.402601
0.189718
0.176932
0.176932
0.176932
0.176932
0.176902
0.176932
0.176996
0.314059
0.122784
0.176899
0.176932
0.210096
0.367383
0.0601475
0.176919
0.270366
0.176932
0.176932
0.176906
0.549756
0.167095
0.176932
0.188914
0.176932
0.0126649
0.176932
0.176932
0.176933
0.176933
0.180436
0.176932
0.176932
0.110614
0.291767
0.176988
0.176932
0.176932
0.189396
0.109182
0.176932
0.163629
0.189001
0.176932
0.176932
399.121
25.1184
0.176932
0.118932
552.812
0.177019
0.171325
0.176932
0.176932
0.190196
0.189472
0.178042
0.176995
417.881
0.176932
0.196041
0.176932
0.176932
0.15291
28.4478
0.515499
0.225598
0.176932
0.176933
0.18759
0.188712
10.5795
3935.13
1.3308
12.2375
0.176751
0.177101
0.223898
0.176932
0.281054
0.17683
0.176908
0.137947
5006.68
0.176938
0.176898
0.176932
0.176932
0.176867
0.176932
0.176667
0.176932
0.176932
0.146296
0.176932
0.176928
0.176932
0.0942757
0.176932
0.176926
0.176605
0.186321
0.176932
0.17675
0.176552
0.176933
0.176907
0.176933
0.177654
0.176925
0.176932
0.176931
0.1767
0.169485
0.176951
0.189994
0.182208
0.191416
0.176932
0.189721
0.191868
0.195242
0.176778
0.176761
0.186981
0.315429
0.176932
0.212489
0.188553
0.176932
0.176932
0.178803
0.176883
0.176885
0.142487
0.176932
0.176932
0.176803
0.190725
0.168028
0.176741
0.188792
0.176932
0.187428
1519.37
473.78
0.187867
0.17692
0.128153
0.176932
0.176932
0.176932
0.176701
0.17685
0.176907
0.234396
0.176932
0.178353
0.141476
0.188783
0.176932
0.177078
0.176932
0.128585
0.191912
0.156951
0.177096
0.193612
0.209741
0.189647
0.176933
0.186831
0.176928
0.191684
0.176931
0.176932
0.190379
402.209
0.170314
0.176917
0.23606
0.176934
0.202079
0.177012
0.176932
0.176932
0.176932
0.17687
0.176896
0.176906
0.176932
0.176932
0.176842
0.176867
0.176721
0.173378
0.177175
0.216979
0.176678
0.176611
0.189469
0.261532
0.176579
0.17683
0.190561
0.176932
0.177001
0.176933
0.192553
0.131406
0.176932
0.176932
0.17666
0.17694
0.176932
0.176889
0.176932
0.176932
4299.82
0.176932
4.01184
0.176723
0.176932
0.176892
0.17713
0.187764
0.176771
0.176932
0.176932
0.176932
0.317962
0.176932
0.176636
0.159058
0.17695
0.168835
0.176932
0.278132
0.176886
0.176928
0.127059
110.42
0.17668
0.176931
19.218
0.186884
0.176932
0.17693
0.176932
0.176932
0.176932
0.171013
4.03698
0.164805
0.176932
0.154511
0.176932
0.176866
0.176817
0.185576
0.182419
0.176932
0.17659
0.176932
0.176674
0.176867
0.176932
0.176898
0.176872
0.177074
0.272741
0.189042
0.176932
0.413933
0.508769
0.176933
0.170929
0.0854731
0.176932
0.176932
0.176683
0.215633
0.176932
0.176932
0.175862
0.190023
0.176932
0.176932
0.176932
0.176932
0.182305
0.554069
0.176932
0.176932
0.199769
0.176933
0.176932
144.302
0.17662
0.176932
0.176933
0.176932
0.173233
0.176667
0.176674
0.176932
0.176933
0.188679
0.176932
0.199991
0.189412
3.33864
0.176932
0.176932
0.176932
0.176885
0.176733
0.176932
0.043611
0.218227
0.186401
0.249407
0.176932
0.187828
0.176932
0.176932
0.176929
0.176932
0.176932
0.176932
0.176932
0.176932
0.176602
0.176932
2729.37
0.176698
0.123809
0.176743
0.147075
0.15187
0.176932
0.188334
0.148978
0.36111
1.16227
0.251588
0.176617
0.176933
0.176932
0.176933
0.509689
0.176933
0.216216
0.343272
0.390656
0.322661
0.182449
1.27059
0.176932
0.0347349
4545.12
0.176932
837.257
0.180424
0.177167
0.176932
0.176932
0.447254
0.176806
0.160855
0.18983
47.3418
0.223265
0.143188
0.189883
0.176932
0.176734
0.176847
0.176871
0.176997
0.176932
0.176932
0.176599
0.649698
0.191898
0.176879
172.015
0.176967
0.176718
0.17702
0.176779
132.174
0.144606
0.176841
0.17677
0.176701
0.162902
0.404971
0.176684
0.138931
0.151236
0.26301
0.177056
0.176954
3656.09
0.145872
0.176919
0.176932
0.176933
0.176939
4.2743
0.177032
0.214389
0.176905
0.176932
0.176932
0.176868
0.17854
0.420698
0.176931
0.176645
462.03
0.40879
0.17926
0.176929
9.6416
1406.6
0.176932
0.176933
0.176902
0.126007
0.129504
0.176932
0.185476
0.104759
0.176931
0.180683
0.147304
0.176865
0.176932
0.176933
0.176932
1.9212
0.17701
0.176985
0.141732
3.41507
0.183341
0.18145
0.196161
0.176579
146.82
0.224052
0.17676
0.132195
0.284747
0.91713
0.186212
1.45091
0.191193
0.176885
1734.7
0.177665
0.16644
0.176702
0.1769
0.176932
0.17671
0.176814
0.177018
0.176925
75.601
0.176932
0.176932
0.269614
0.176932
0.176953
1060.92
0.346928
0.185915
0.179456
0.17668
0.217926
1.2269
0.17531
0.176909
0.176644
0.177039
0.620302
407.923
0.188973
0.180457
523.186
0.176738
0.394352
0.176612
0.176932
1.97766
0.193415
0.177067
0.421061
0.176884
0.176914
0.377733
519.673
67.7338
0.176993
0.176715
0.176932
0.176701
0.177956
0.177973
0.188099
0.176932
0.176932
9.86939
0.176646
0.17681
0.743752
0.176932
1.3964
11.2501
0.176932
0.176762
5.61284
0.244852
1.30041
23.3074
0.176737
25.582
0.132768
0.195689
20.7929
0.178507
0.137138
0.176866
0.176932
0.176757
0.357225
0.190689
0.176651
0.455778
0.181906
0.250388
1.21003
0.176932
0.797122
0.213715
0.180827
0.176932
0.176932
0.19345
0.176595
0.176643
0.236156
0.178016
0.870074
0.187619
0.199265
0.181534
0.176813
0.176808
0.555535
0.377097
0.176933
0.177202
0.176932
0.228074
0.177069
0.230514
177.189
0.177413
0.168201
21.0146
0.186943
5.58145
27.2809
893.259
0.177721
0.151009
5.85481
0.181136
0.186228
0.176932
7.9287
0.177035
0.17699
0.194709
0.178611
0.172296
0.189404
0.188725
0.142264
4837.65
0.176925
8.65416
0.190635
0.140597
5.61209
0.17701
0.162756
0.138712
81.2976
0.190898
0.176932
0.143773
0.176932
0.186757
152160
0.188591
0.176678
0.17716
0.454913
0.176924
1.77159
0.176932
0.176932
0.176929
0.176882
0.207486
0.187918
0.176932
0.300657
0.228327
0.176976
0.17693
1.92277
0.17693
0.176932
0.176969
0.474802
0.0586594
0.176842
3.9406
0.176932
126.028
0.186349
0.179297
0.171812
8.45926
0.331463
0.208149
0.176836
0.228158
0.189366
284.727
612.902
0.284544
0.190836
0.19865
0.176932
26.0949
0.17695
0.178458
0.176907
0.0981453
0.176653
0.190332
0.181664
0.161966
4.48894
0.190211
0.176642
152.458
0.188141
0.176914
0.176932
18.2456
0.602999
0.176933
0.135462
0.177045
0.175797
0.182777
0.134721
0.17691
0.176688
0.291748
996.397
0.189224
0.177035
0.188622
0.17693
0.176879
0.234243
0.176932
0.165643
0.187588
0.177022
0.0360284
0.176932
2.35409
3511.82
0.176932
0.195091
1.79947
0.176933
0.176932
0.176982
0.255499
0.176932
0.177613
0.176688
0.191954
0.177584
0.177975
0.176932
0.176932
0.176773
0.176589
0.176932
0.176919
0.17688
0.176852
0.176851
8.1011
0.177244
0.176675
947.873
0.178707
0.176649
0.176647
0.177063
0.176932
0.191365
0.77874
0.176932
0.176949
0.177662
0.178841
0.377084
1066.88
0.192228
0.20245
79.774
0.176629
0.176932
39.7822
95.3839
0.189637
0.133204
0.176905
0.176932
2396.33
0.189828
483.445
0.187806
0.193061
0.186308
0.176931
345.059
0.176778
0.176933
0.189202
207.441
1.27225
0.22082
152.738
0.188659
0.187686
0.222981
0.176818
804.256
15.1994
0.188184
375.573
0.176932
221.658
0.176931
0.18052
0.176923
0.382377
0.176932
9.74376
0.176746
0.176665
0.190394
0.0455038
0.185994
0.177483
0.176932
0.176784
0.474831
0.176684
0.176932
4473.73
0.176932
3.42237
0.176929
0.176704
0.177296
0.176956
0.176817
0.176932
1.47091
0.176907
0.423414
0.390372
0.17668
0.176566
0.177037
0.176873
0.176559
0.176911
28.5333
0.176899
0.176915
0.176932
0.18954
0.212404
0.176932
0.176851
0.176932
691.118
0.176933
0.177084
0.177079
0.177008
0.176858
0.14587
0.176789
0.176742
0.176914
1565.52
0.17709
0.176911
0.176896
0.147646
0.177145
0.177566
0.180395
0.176756
0.177647
0.176931
0.122011
0.176932
0.176986
0.175728
0.378903
1.2508
0.176944
32.17
35.6142
77.1248
0.176684
70.324
0.180212
0.187724
0.176867
3.74893
10.8027
0.176923
0.176933
0.176897
0.176666
0.20962
8.22625
0.176932
0.176932
0.176562
0.176889
0.177135
381.005
0.176628
1152.86
199.758
0.176933
0.178739
0.344144
0.178872
0.175936
0.176933
0.17701
0.180484
0.176633
434.055
0.176925
0.177896
0.17665
0.13819
0.18873
0.176932
0.176932
0.176932
0.176932
0.177417
0.176895
0.291343
0.176932
0.180625
0.178564
0.194776
0.176929
0.0125561
0.135517
0.176931
1.22167
0.361732
0.189574
0.176923
0.176932
0.154871
0.194555
0.451644
0.400317
0.176695
0.176932
0.199736
0.176907
0.183722
0.176932
0.176897
0.190423
0.2866
0.176708
0.176932
264.27
0.176932
0.17688
0.176932
0.176932
10.0039
0.142298
28.2902
0.176932
0.176923
0.176867
122.739
0.17914
532.968
1300.04
0.190034
0.176885
0.176761
0.176674
0.176932
737.8
989.063
0.176932
0.176671
0.176886
0.176932
0.172882
0.176932
0.15662
0.176932
0.149455
0.190407
0.192855
0.176932
0.176932
0.176932
0.17671
0.176787
0.17662
0.176932
0.179262
0.176732
0.184575
0.452718
0.0864922
0.176932
0.176811
0.176933
0.176932
0.177567
222.62
0.176932
0.176902
0.17693
0.143619
0.205618
465.285
4.08932
61.0226
0.163422
0.194646
2380.3
0.176755
0.184271
0.176623
0.176646
0.190908
0.515726
81.3709
0.215787
0.176902
0.164252
4732.5
0.176932
0.176932
0.177272
0.176919
0.176829
0.176782
0.187453
2318.27
0.176933
12.1364
892.28
0.176932
0.176932
0.176932
0.176814
0.176932
0.176932
0.176932
0.190655
0.118272
0.177235
0.183775
43.7422
0.177673
0.166212
0.154861
0.17694
0.18986
0.186128
0.178084
0.189971
0.1914
0.184579
0.125558
0.176591
3.26104
0.176932
0.176932
0.180483
0.177
0.17711
0.176626
0.176932
8.23863
0.176933
0.177078
0.176942
0.176932
0.176952
0.176901
0.176995
0.176927
0.137301
0.176932
0.177292
0.17665
0.177383
0.176906
0.176932
4.30687
0.176745
0.176885
0.202433
0.177806
0.176912
0.176609
0.184246
0.254716
200.491
0.178733
0.176932
0.1884
0.176727
0.176951
0.176654
0.25263
0.176647
0.176922
0.176932
0.684213
0.187635
0.176768
0.190161
0.176639
0.135015
0.188141
0.177033
0.178323
0.176933
0.176932
0.176968
0.176932
0.176932
0.176704
0.19128
0.176932
0.176813
0.179038
0.134689
0.217809
0.176933
0.177685
0.193047
0.177899
0.798065
0.186285
1.30776
0.179684
0.176952
0.191131
0.176932
0.178762
0.176933
10.6767
0.208609
0.190621
0.168697
0.117124
0.17683
0.176933
0.107368
0.176932
0.176903
0.488102
0.188255
0.176721
0.176932
0.177433
0.176927
0.176805
0.176636
0.176932
0.176888
0.137323
0.17693
0.176932
0.176926
0.176908
0.176932
0.0807385
0.149134
0.191196
0.176841
0.189016
0.20633
0.17693
0.176932
0.176926
7.09992
0.170371
0.219613
0.176956
360.762
0.176932
0.17685
0.349205
0.199956
0.177032
0.176705
0.176932
0.17661
0.176705
0.176914
0.17695
0.176995
0.179769
3.2392
0.120748
0.176613
0.176609
259.436
0.176618
14.7234
0.176932
0.188455
0.176912
0.176932
0.176932
0.154188
0.592246
0.17671
0.176948
0.176932
0.176932
0.167459
0.176897
0.10389
0.18762
11.8833
0.189453
0.176932
26.8597
0.176932
0.176928
0.176932
0.176932
0.176926
0.176716
0.142454
0.176932
0.208486
0.176932
0.177187
0.176936
373.752
0.176928
0.176893
206.718
0.145238
0.176932
0.176796
0.176932
0.176905
0.418876
0.176932
0.145929
0.176844
0.176865
0.302355
8.1627
0.177045
0.177028
0.176833
0.177634
0.176932
0.176932
88.1844
0.177016
0.176932
0.190304
0.176932
0.176926
0.176904
0.176933
0.176581
0.209054
0.176932
0.177102
0.151213
41.4
1303
0.176933
0.176932
2.51708
0.176932
0.177155
422.541
0.176895
673.305
2221.38
1186.06
0.154167
0.176804
0.177124
0.176712
0.176932
0.177084
0.172423
0.176701
0.181281
0.1769
0.357391
0.271418
0.176726
1400.24
0.176744
0.177053
0.179331
27.4462
0.124774
0.176932
21.9031
0.176928
0.176932
0.176932
0.177008
0.176989
0.176932
853.271
0.166921
0.177449
0.176894
0.177608
0.176932
65.3173
0.176932
4.11154
0.176932
0.176932
0.176863
0.187984
0.176898
0.062886
154.267
0.17697
0.176904
0.176932
10.8
0.176879
0.176932
0.176699
19.6621
0.17693
0.176932
0.176933
0.178401
405.942
751.675
484.929
0.144201
120.654
0.176776
0.17698
0.176715
0.20063
0.176677
0.176616
1.05538
0.183292
0.393726
0.176729
0.176884
0.161096
0.175773
323.761
0.176932
0.176806
120.741
1.23075
0.239577
20.996
0.655487
0.176932
0.177005
5.33249
0.176932
0.176932
0.188943
35.4693
0.168369
1489.98
0.155922
209.308
0.176742
0.225704
2.96806
0.176764
0.176858
23.4961
0.17703
0.176626
0.176932
0.176745
0.178506
0.1967
0.177081
13.7155
0.176916
0.176932
0.176742
0.176972
0.186067
0.413945
0.176709
0.176917
0.176932
0.227011
500.61
0.176847
0.176933
0.176549
0.176609
0.179076
0.176932
0.176932
666.85
0.17807
1.52116
0.176932
2.17998
0.176929
0.0920689
0.206397
12.6546
0.176932
0.178618
0.181821
0.176919
0.176932
0.176783
0.176932
0.176944
0.185108
0.155956
244.725
1.13972
9.62952
0.188986
43.6662
0.18929
0.192836
0.176932
0.176932
0.189151
0.17693
0.187261
0.176932
0.177066
0.176843
0.188182
0.176932
0.179523
0.19199
0.176932
0.176932
0.177
0.176929
0.17696
0.176932
0.218178
0.176932
0.176841
3.38471
0.176929
76.8464
191.911
0.165938
15.5701
0.16851
140.533
0.15262
0.176932
0.176932
0.176931
0.18809
0.176932
2737.05
0.176713
0.176817
0.176932
0.176932
0.176932
0.176678
0.176841
0.176763
0.176932
0.145038
0.176929
0.176932
16.3292
0.177082
0.176789
4410.48
0.198387
0.176932
0.176932
0.176932
0.118916
322.078
119.825
55.7484
166.406
0.176825
0.176932
0.176932
0.176937
0.17692
0.176932
0.187797
0.176932
0.176932
0.176932
0.177122
0.176729
0.176613
0.177223
0.17691
0.172914
0.96855
10.1813
0.425021
0.443268
0.176858
0.176734
90.9439
0.176462
0.176932
34.6562
0.189697
0.17679
0.176993
0.196755
48.8978
0.44495
0.1768
0.176932
0.188953
165.938
0.176932
0.176906
0.176932
0.434713
0.186456
0.177431
0.194451
0.176932
0.176933
0.176932
0.176643
0.176724
0.176854
0.176808
0.17692
0.176932
0.176795
0.176809
0.176689
0.176774
0.180889
0.176932
0.527574
0.18101
115.672
0.124452
0.167066
0.155042
0.221774
0.19616
0.176932
0.17699
0.177071
0.200911
0.315797
0.193454
0.17785
172.756
813.34
0.180135
0.150773
0.188585
0.168726
0.177056
425.961
0.536493
0.238774
0.176925
0.176932
0.176928
0.176918
0.177692
0.179751
0.241691
0.182471
0.176825
0.176888
0.176669
0.176908
0.181043
0.181907
0.176792
0.176674
0.1182
0.168782
0.176932
0.176728
0.176893
0.176876
0.176932
0.176924
0.163609
0.176933
0.176932
0.176932
1.98911
0.176852
0.179336
0.180083
0.176873
0.165357
0.176925
0.176971
0.176716
0.179782
206.22
0.307284
0.177095
0.181224
0.176572
0.176713
1.44795
0.0987636
3204.33
0.362716
0.126889
0.176932
0.0602702
0.176932
0.176932
0.176932
0.176764
0.176932
1608.69
0.176858
0.186316
0.152099
0.177055
0.176787
0.19442
0.177595
0.144265
0.176932
0.230175
0.176932
0.176823
0.192197
0.176928
0.176678
399.821
0.176858
0.176912
0.176698
5.59417
11.2248
0.176902
0.388934
0.176921
0.17679
0.176821
0.176933
0.176919
0.176704
0.176635
0.176932
0.176892
0.176849
0.268402
0.176933
0.167675
0.176761
0.204307
0.190454
0.330353
469.719
0.176932
0.176932
0.176816
0.377706
0.0161524
0.176932
0.176556
0.540442
2.49919
0.177361
0.606056
0.194263
0.176583
0.190582
0.185403
0.176693
0.176775
0.17714
0.177005
0.142203
0.1768
1.11567
0.176932
0.176932
1885.51
213.303
0.177252
1.04028
348.588
0.177022
0.176947
0.189945
0.176757
483.068
0.188738
0.187227
0.190723
0.176863
0.176691
3797.64
0.22038
0.176654
0.176791
0.176705
0.176932
0.176932
0.176932
0.175846
4495.95
0.257518
0.176932
0.176633
0.176932
0.177091
0.177377
0.176897
0.176771
0.177799
0.30531
0.176697
0.208088
0.177509
0.176932
0.177005
0.176623
1442.67
0.176932
0.178351
0.199623
0.148218
0.177036
0.176932
0.176825
0.176931
0.17714
113.817
0.177907
0.177106
38.8284
0.110447
0.176879
95.8725
0.176735
0.179201
0.177856
0.176753
0.0930546
0.176863
0.17692
0.177093
0.176586
0.176807
0.17661
0.191943
0.176909
0.184458
0.177022
0.178716
0.177997
0.176895
0.176794
0.176898
0.192772
0.196008
426.231
0.179308
0.178007
0.187508
0.176932
0.193464
0.132605
0.170777
0.190133
0.231139
0.177031
0.190531
0.182535
0.176932
2643.7
97.9329
0.189831
0.189992
0.187425
0.252772
0.176896
0.176879
0.177691
0.166672
0.177848
0.176899
0.325919
0.177065
0.177107
0.192544
0.405252
2815.94
0.17688
0.238336
0.176944
0.236908
0.177035
0.176909
0.108885
0.176914
0.19275
0.184923
0.177941
0.191338
279.61
0.177523
0.658972
0.177042
0.14966
1.12297
0.188924
0.176833
0.177852
0.0239519
56.9691
0.16908
0.176705
0.176833
40.1033
0.176931
0.176916
0.2028
0.16954
0.187864
0.176846
0.176587
0.176755
0.149714
0.177167
0.176823
0.176932
0.200504
0.177035
0.176932
0.182377
0.192117
0.176663
0.176965
43.4321
10.9524
0.176932
0.176929
0.12277
0.454136
0.176936
0.273974
0.187175
0.190275
0.671466
0.176673
0.177827
0.18848
0.176923
0.176831
0.189663
0.180853
377.6
0.176578
34.446
0.361239
0.31538
0.22314
0.178911
0.119669
0.322192
38.3802
0.223791
1.7333
0.163502
0.176812
0.17672
0.160234
0.176932
0.176681
0.17325
0.345728
0.177004
0.1769
0.17685
0.176866
0.190786
0.175036
0.176741
0.0759502
0.176868
0.176623
4.25701
0.140933
29.9175
0.177416
0.119477
1.34207
0.259054
47.9446
0.176933
0.17691
0.176911
0.176816
0.188317
0.195867
0.176912
0.176831
4.68835
132.554
0.190647
58.007
0.174337
61.7635
0.187738
190.157
0.176742
130.67
0.187368
0.174177
0.176925
0.176932
21.0639
0.176932
0.176932
0.176939
0.176932
0.176932
0.188233
0.17555
0.0857996
0.176932
0.838607
69.7898
0.188087
0.176932
0.176932
0.176831
0.176925
0.0474728
0.176881
0.124136
0.124772
0.176933
0.176932
115.169
0.711193
0.0936486
0.142669
0.176649
0.191714
0.153727
0.176932
0.176932
0.176929
27.8486
0.176932
0.176932
0.176932
0.176932
0.189881
0.176933
0.177598
25.6238
0.182528
0.194138
0.176862
0.165361
0.150459
351.873
0.158693
0.176932
6867.24
0.176932
0.176933
0.176933
0.131192
0.176932
0.190871
0.146964
0.176932
0.176932
0.184461
0.176933
0.176932
2735.3
0.144274
0.178131
0.142276
0.176932
0.176932
0.176932
0.176932
0.176932
10839.6
0.176932
0.101989
0.189457
0.176932
0.176932
4359.6
0.17692
0.186675
0.188457
0.176932
0.176932
0.176933
0.176932
0.187603
0.16802
0.176932
0.190401
0.162767
0.176932
0.176932
0.188736
0.176933
0.176933
0.189121
0.188272
0.176932
0.176933
0.879671
0.181242
0.189973
0.180951
0.14879
0.180738
0.141656
0.176932
0.176932
0.176932
0.176932
0.176932
0.177702
0.198248
0.176933
0.188614
20.8605
0.189884
0.176991
0.176932
1.1959
0.705496
0.187604
1.38185
0.176932
8.86177
0.176932
0.176932
0.176932
0.176933
0.194964
0.176933
0.14926
0.176933
0.176932
0.176932
0.176932
0.189979
0.187579
0.176902
0.11418
0.176932
0.176932
87.8867
69.6808
0.176932
0.176932
1.6041
0.106412
0.177658
0.142369
0.176897
0.176933
0.176932
0.176932
0.176932
0.188028
0.135407
0.12737
0.176932
0.176932
0.189348
0.176821
0.179732
0.176931
0.176932
0.176638
0.190546
0.188482
0.190257
0.176932
0.1874
0.152415
0.176932
0.176685
0.176761
0.154338
0.176788
0.176932
0.17675
0.177039
0.176932
0.156848
0.192807
0.176933
0.176932
0.125457
0.176793
0.176932
0.212649
0.210252
0.191146
0.176932
0.176932
0.190848
0.176932
0.176932
0.176873
0.176933
0.176932
0.176932
0.176932
0.176932
0.236596
0.176932
0.176932
0.180656
1.74341
0.182374
106.895
478.897
0.176976
0.211544
1.55654
0.191076
0.189083
112.686
0.176933
0.164972
0.158995
4.68124
0.098919
0.190685
47.8619
0.560014
0.198983
2.74113
0.177008
0.176932
0.332359
0.176676
0.182775
0.165999
3025.92
0.180584
5.36526
0.189111
0.254938
0.543539
369.31
0.176932
0.176932
0.176932
5580.76
0.184396
0.176673
0.18957
0.176911
0.176933
0.176925
0.158416
0.176487
0.190146
0.176896
0.176893
0.176906
0.177004
0.11117
0.187114
0.177011
0.212487
185.628
0.168378
0.176885
0.172841
256.687
0.0985608
0.185111
0.177055
0.176907
0.186894
0.240186
0.19063
0.176918
0.190794
102.984
0.176756
0.177013
0.13338
0.176932
3.22068
0.187949
0.176932
0.150287
0.179143
0.176911
0.187815
0.190633
0.166552
3.53734
0.347953
0.17673
0.161186
0.190497
0.176928
0.176895
0.190181
0.213902
0.176932
0.176932
0.176872
0.203628
0.187299
0.156083
0.353809
7855.8
46.0004
0.126661
0.175614
0.176855
0.176972
0.176932
5.22708
0.176926
0.189665
0.385567
0.183771
96.8927
8.03487
1096.04
0.176932
7.01492
6.93167
0.176919
0.176705
0.190654
0.177202
0.176816
0.176932
0.240657
0.176964
0.177012
0.177142
0.177519
418.794
0.344039
0.176881
0.1767
0.166885
0.176932
0.176931
0.41204
0.16971
0.187997
0.564069
0.176911
0.188473
3.323
0.176932
0.176931
0.167581
0.188882
0.27058
0.176927
307.485
0.168904
0.160398
0.176561
0.999829
0.178023
0.176933
5848.32
0.188524
0.176845
0.176932
0.178307
0.177022
0.178413
0.176932
0.222274
0.176633
0.176697
0.17715
0.181973
0.177018
0.177027
0.176934
0.176918
1.82538
0.177951
0.426289
0.185382
0.176932
0.224179
0.288461
0.394985
0.374042
0.378113
183.145
0.340029
22.2161
0.177977
0.184129
0.176932
0.260403
0.177046
0.176932
0.289818
0.176623
26.4523
2714.34
0.180133
0.176932
0.176934
0.177095
1.04761
0.235056
0.177031
0.263211
0.178828
0.176932
0.188785
0.176864
136.841
433.935
0.176884
0.176932
0.176844
0.178113
0.176691
38.0473
0.232416
6.34034
0.176932
364.452
0.177004
0.476577
4387.87
283.557
491.087
0.415652
0.17672
0.176932
47.9738
20.9128
0.176932
0.177735
132.076
0.177006
0.177001
0.176932
5.13927
0.164244
0.176932
0.176932
0.176932
1.17408
0.438928
0.176837
0.176637
0.176944
0.190221
0.176932
0.177042
0.177126
0.846516
247.818
0.829583
0.176957
0.175222
0.492107
0.176931
0.176921
0.179864
0.192615
0.17728
0.176903
6.4858
0.361327
0.33449
0.176933
494.218
0.189676
0.176932
926.393
0.24006
0.950998
0.41328
0.161341
0.176933
0.176932
0.177343
0.176633
0.179119
0.177171
11.8704
0.176852
0.433071
4.36307
0.176932
0.179894
0.177047
0.176932
0.21687
0.176993
10.7612
0.176932
0.176932
0.179674
0.187516
402.847
0.348951
0.176932
0.702741
0.17694
0.176727
0.965739
0.0827457
0.176626
0.184859
1.81279
0.176932
1.89018
0.246432
0.27737
0.315064
0.27271
0.400945
0.228689
0.179742
0.177171
0.694916
0.176932
0.176932
245.24
0.750505
11.0723
106.001
77.4959
2.67982
0.176932
0.17702
1034.76
0.169682
0.13224
0.19168
0.19511
0.171982
40.3179
10.2658
893.092
0.169068
43.0956
80.6426
0.187004
10.9316
0.17903
0.163281
0.189227
0.147828
0.177081
70.9231
0.191666
33.7445
473.163
0.176945
11.9008
0.176932
0.179346
0.867338
0.180978
0.836353
0.114493
0.189368
0.14172
0.177025
0.176911
0.156234
0.0857249
0.176932
0.515776
0.176934
0.176961
0.186026
0.188565
0.176748
0.176932
0.176932
0.176932
0.119611
0.195987
0.176939
0.176991
0.176932
1147.37
0.176932
0.177694
0.177275
0.176932
0.150101
0.185548
0.176871
0.176911
4594.4
0.211551
0.178401
0.436671
0.177053
0.176757
0.155122
570.666
0.177919
0.176912
0.179276
0.176943
1.60717
0.177081
0.176932
0.130101
245.278
0.746168
0.176569
0.176799
0.177489
0.177649
0.188006
0.185572
0.306527
0.177763
0.177109
0.177081
0.176895
0.275889
0.193146
0.182193
0.405228
1610.87
0.186424
0.177318
99.1207
0.69004
0.914643
2174.9
284.92
0.18101
0.178893
0.177291
0.176914
482.342
0.46845
0.13552
0.196063
0.211047
0.176632
0.176712
0.48084
0.134578
1106.72
0.192253
0.176685
0.189129
0.176768
0.179006
0.186151
0.178827
0.0375645
0.571764
0.942804
57.6927
0.179236
0.177998
0.176947
0.266522
0.176903
0.176932
0.211912
0.200303
0.186854
0.179791
0.145608
822.966
1756.84
0.163037
34.9806
4.71509
0.177095
199.74
0.176763
4.08631
0.176944
0.176579
0.234338
0.18101
455.082
0.430633
0.435901
0.278874
11.44
0.176932
26.0553
0.176755
33.8237
91.8596
1428.49
31.457
917.299
0.176932
644.669
0.280521
0.17713
0.177629
2.43278
122.494
48.0473
70.2884
9.41145
0.176371
0.177243
0.177011
0.177394
0.317228
0.177052
0.176604
0.244071
0.694194
0.176903
0.176922
0.176932
0.176657
0.176681
0.176794
0.176663
0.176734
0.176931
0.317034
0.176883
0.181447
205.973
0.176797
0.180111
0.176868
0.176894
0.176913
0.152076
0.176921
0.17674
372.718
41.9866
1.4534
6602.13
0.106829
0.176748
0.176621
5.14189
0.799971
32.47
0.155987
10923.2
0.158233
68.8
0.176811
0.390316
0.179821
0.151184
35.5921
316.331
0.166619
2369.94
0.407463
282.198
0.122485
0.179486
0.18025
0.467289
0.904744
0.182455
0.177274
0.176852
10.5109
0.289884
9.98652
0.179604
0.177423
0.176708
0.179104
0.177004
91.8312
0.176997
827.475
1.15281
0.129922
0.177004
0.177033
0.529509
72.3181
57.3092
0.177154
0.178234
0.179895
0.176971
4346.35
0.177368
0.177093
0.17705
58.1609
0.322787
0.238253
0.177642
0.409717
126.764
0.177002
0.176919
0.176981
13.6536
1.4049
3.40123
0.411016
0.176932
0.709944
0.378409