/*--------------------------------*- C++ -*----------------------------------*\
| =========                 |                                                 |
| \\      /  F ield         | OpenFOAM: The Open Source CFD Toolbox           |
|  \\    /   O peration     | Version:  2312                                  |
|   \\  /    A nd           | Website:  www.openfoam.com                      |
|    \\/     M anipulation  |                                                 |
\*---------------------------------------------------------------------------*/
FoamFile
{
    version     2.0;
    format      ascii;
    arch        "LSB;label=32;scalar=64";
    class       volScalarField;
    location    "0.2";
    object      nut;
}
// * * * * * * * * * * * * * * * * * * * * * * * * * * * * * * * * * * * * * //

dimensions      [0 2 -1 0 0 0 0];

internalField   nonuniform List<scalar> 
32842
(
0.000598906
0.000598962
0.0005994
0.000599399
0.000740412
0.000599399
3.83379
3.00917
0.000599399
0.000599399
0.627005
0.431665
0.000599399
0.000599399
0.000599127
0.000599388
0.000599399
0.000599399
0.000599041
0.000736033
0.000757469
0.000748194
0.000730596
0.0005994
0.000726519
0.000599399
0.000599399
0.00068644
0.230302
0.000599399
0.24154
0.472643
6.4493
0.000599396
8.28607
5.18724
0.000729693
0.000599399
0.00059925
0.000599183
0.0005994
0.000755839
0.000599399
0.000599399
0.333691
0.000599399
1.01099
0.000599114
0.00074974
0.0902781
3.35197
0.000599399
0.588374
0.0627219
0.0005994
0.000657243
0.000599399
0.0292415
0.000599399
0.000599399
3.35278
0.56522
0.62941
0.000757241
0.000599194
0.00144109
0.000599399
0.695014
0.437149
0.000599345
0.000681608
0.0362897
0.497199
0.000599399
0.000599399
0.000598232
0.0874932
0.000599399
0.496013
1.1745
0.000738687
0.000599399
0.000599399
0.551432
0.773011
0.000599399
0.000599399
0.00142424
0.0777543
0.000599399
0.000740584
0.000748727
7.66771
0.000599349
0.000599399
0.000599277
0.482255
0.000599193
0.715531
0.000599399
0.000599399
0.000772089
0.000598978
0.167945
0.49321
0.452459
0.782346
0.000599151
0.527568
0.000599438
0.000599399
0.000599399
0.0066339
0.000599399
0.000599044
0.000752225
0.540658
0.109022
0.000598756
0.000599195
0.000599399
0.000599399
0.0275337
0.0005994
0.000592545
0.490934
0.395622
0.000599395
6.62634
0.0005994
0.000599399
0.000600612
0.000946563
0.492862
0.000895086
0.000599342
0.000601512
0.0462102
0.000599157
0.000599453
0.529438
0.000599398
0.525956
0.00069234
0.000599072
0.000599399
21.6143
0.000599399
0.000599399
0.000599399
0.000600777
0.1718
0.000710643
1.26647
0.000599273
0.000599399
0.000599399
0.000599398
0.000599087
0.000599399
0.000598919
0.000599399
0.000727684
0.000599399
0.000599277
0.000599398
0.000599399
0.000599399
0.000599235
1.80778
0.000479243
0.000794678
7.09995
0.000599399
0.000760872
1.24641
0.000599399
0.000599464
0.000599399
0.000599399
0.000664364
0.000599399
0.000599399
0.000599399
0.54398
0.000599399
0.502479
0.000599399
0.000599204
0.000599399
0.000599399
0.104286
0.428678
0.000599399
0.445224
0.000599385
0.000599398
0.00059939
0.480955
0.000599399
0.000599336
0.000599394
0.105613
0.0522749
0.000286218
0.001375
0.000599097
0.000757406
0.449102
0.000599228
0.000598958
0.000602358
7.12979
5.79765
0.000599399
0.000599399
0.000599292
0.000599202
0.00059906
0.000599437
0.101398
0.000599399
0.000599399
0.000599053
0.000807529
0.377743
0.0005994
0.464206
0.00059893
3.27303
0.000599399
0.000599399
0.000599381
0.000599399
7.27438
0.000736966
0.00074171
0.000610182
0.000599341
0.563872
0.0109316
0.0005994
0.000599191
0.0245046
0.000599074
0.000599386
0.596163
0.000599399
0.000599399
0.0005994
0.000599399
0.000599399
0.000599255
0.481754
0.000599391
0.000599399
0.000599399
5.08375
0.000599399
0.000599399
0.000599399
0.000599399
0.000599399
0.0005994
0.368116
0.000599399
0.000599399
0.000599399
0.000599399
0.0005994
0.000599399
0.484357
0.000599399
0.372993
0.000599399
4.92034
0.000599285
0.000755887
0.000599399
0.000599182
0.000599399
9.42136
2.09315
0.000599399
0.000598979
0.00105909
1.53348
0.000599399
0.000757294
0.000599399
15.1392
0.0005994
0.435012
8.52797
0.112793
0.000595957
0.431683
0.000599399
0.000599388
0.000725165
1.09765
0.0005994
0.000599399
0.000599401
0.000599399
0.000599399
0.000599399
0.000599399
0.000599398
0.569646
0.0005994
0.000599399
0.560247
0.000599399
0.000599399
0.000599399
0.000599374
11.3639
0.000599399
0.000599399
0.00059931
0.0291269
0.000599399
0.000647512
0.0005994
0.000599399
0.000599289
0.0005994
0.000598903
0.000599399
0.000599145
0.506715
0.000599399
0.000599399
0.000599399
0.000599399
0.943764
0.438773
0.000599399
0.000599399
0.000599399
0.000599094
0.000602664
0.000599399
0.567477
0.000599399
0.000599399
0.458906
0.65293
0.521515
0.000600467
9.74685
0.000599126
0.480598
0.000599399
0.0005994
0.000728406
0.000599335
0.000599399
0.000599212
0.000599399
0.000599399
0.000599374
0.146033
0.000599399
0.00059936
0.000599399
0.000599399
0.000614283
0.000720079
0.000599399
11.9813
0.000599399
0.000863614
0.000599399
0.529874
0.000746604
0.000599399
0.000600345
0.000729517
0.000598933
0.57661
0.491821
0.000599396
0.000599313
0.0005994
0.000599399
0.000599399
0.000599399
0.000599399
0.000599399
0.000599399
0.000599399
0.000599399
0.000599201
0.000599399
0.000598935
0.000599213
0.000599317
0.000599335
0.168738
0.000599399
0.000598966
0.000599077
6.37612
0.000599434
0.000599396
0.000850681
0.000599399
0.000728656
0.390897
0.000599399
0.000599399
0.000598989
0.000599399
0.000599099
0.000599053
0.00059897
0.000599614
14.7656
0.000599499
0.497401
0.000599399
0.000759475
2.99343
0.000599399
0.000599399
0.000599399
0.000590514
0.0005994
0.000598514
0.000599399
0.000599399
0.504972
0.000737743
0.961246
0.000598939
28.5133
0.00466001
0.535016
0.000756142
0.103335
0.000737518
0.545063
0.0005994
0.000599012
0.000662432
0.0005994
0.000716214
0.000600744
0.0005994
0.000599381
0.000599748
6.85378
0.000707823
0.000599393
0.000599
0.000745476
0.000599304
0.000599135
0.000599287
0.0007666
0.000599399
0.000599399
0.000599399
0.000599094
0.000599399
0.54883
0.000599399
0.000599498
0.000599399
0.000769046
0.000742295
0.000599399
0.000599039
0.551775
0.512953
0.000599399
0.0005994
0.000599399
0.000599399
0.000739195
0.000598989
0.0389648
0.550457
0.000599399
0.0005994
0.701418
0.000598879
0.000599399
0.000734564
0.000599966
0.000666214
0.000601347
0.522069
0.000759382
0.418833
0.552971
0.00060406
0.000599398
0.000749818
3.64541
0.000599373
0.517814
0.000742447
0.712679
0.000708563
0.000599399
3.35733
0.000748063
0.000599399
0.499203
0.000599397
0.489804
0.000599399
0.0005994
0.000742755
0.000849623
4.96586
3.72893
0.0737368
0.118369
5.00189
4.47679
3.66313
0.534248
0.000598938
0.000599399
0.000599028
0.550943
0.114328
0.642211
0.00579087
0.000599551
0.000599399
0.000711032
0.137544
0.000599401
4.34003
0.0144197
0.000599396
1.18311
0.000564351
6.78725
0.0005994
0.000599399
0.000599442
0.525316
4.09573
0.000599399
0.000770887
0.000599397
0.108183
0.435356
0.000599398
0.000598903
0.000599399
0.000599399
0.0224065
0.00162382
0.000599399
0.000599399
0.000599326
0.483878
0.0338168
0.689702
0.000598949
0.000599399
0.000599399
0.063467
0.5589
0.419908
0.123023
0.428877
0.000599399
0.000494859
0.429836
0.000599
0.0809361
0.000599399
0.000740291
0.000599399
0.000599516
0.000743118
0.000729754
0.000599399
0.000599399
0.000599396
0.000599152
0.557446
0.000760914
0.000599399
0.000599282
0.0216019
0.000599399
0.00111443
0.14447
0.660013
0.000599234
0.000599399
0.046782
0.102937
6.1135
0.000599323
5.63632
0.793118
0.0846737
0.000601266
0.0727137
0.000599399
0.000599399
0.0005994
0.000599399
0.000599399
0.105084
0.000745833
0.000599399
0.000599399
0.000599399
0.000599399
0.000599353
0.000599399
0.00059942
0.121426
0.682254
0.000599291
0.000599399
0.0582269
0.14271
0.0237447
0.00059938
0.169186
0.000599399
0.000599399
0.000599368
0.0749447
0.498492
0.000599399
0.000733927
0.000599399
0.0780992
0.000599399
0.000599399
0.0005994
0.0005994
0.225889
0.000599399
0.000599399
0.0009859
0.144155
0.000597768
0.000599399
0.000599399
0.43877
0.778139
0.000599399
0.504006
0.00073542
0.000599399
0.000599399
1.08046
0.496688
0.000599399
0.704323
1.67978
0.000599444
0.000456458
0.000599399
0.000599399
0.000750037
0.000745507
0.000607774
0.000599395
0.816545
0.000599399
0.00058834
0.000599399
0.000599399
0.126146
0.162193
0.000539454
0.000665349
0.000599399
0.000599399
0.000719231
0.00073212
0.0996338
0.460984
0.05421
0.134156
0.000599052
0.000599505
2.23111
0.000599399
0.0955763
0.00059926
0.00059937
0.616062
0.475925
0.000599349
0.00059936
0.000599399
0.000599399
0.000599301
0.000599399
0.000599001
0.000599399
0.000599399
0.572345
0.000599399
0.000599394
0.000599399
0.899301
0.000599399
0.00059939
0.000598938
0.430057
0.000599399
0.000599146
0.000597887
0.000599399
0.000599364
0.0005994
0.000600393
0.00059939
0.000599399
0.000599397
0.000599077
0.000423452
0.000599234
0.000749416
0.000657147
0.000766783
0.000599399
0.00074766
0.000887804
0.416254
0.000599187
0.000599163
0.000715277
0.0816228
0.000599399
0.382487
0.000730562
0.000599399
0.000599399
0.000602037
0.000599339
0.000599343
0.584381
0.000599399
0.000599399
0.000599222
0.000756959
0.486746
0.000599136
0.000733879
0.000599399
0.000718167
1.71004
4.40744
0.000721919
0.000599382
0.651902
0.000599399
0.000599399
0.000599399
0.000599079
0.000599301
0.00059936
0.147755
0.000599399
0.000601312
0.588213
0.000736499
0.000599399
0.000599505
0.000599399
0.650641
0.000780691
0.531125
0.000599542
0.428408
0.386454
0.000742422
0.0005994
0.000710619
0.000599393
0.000768472
0.000599397
0.000599399
0.00075323
2.62934
0.476796
0.000599379
0.0130015
0.000599339
0.403776
0.000599438
0.000599399
0.000599399
0.000599399
0.000599289
0.000599354
0.000599363
0.000599399
0.000599399
0.000599274
0.000599309
0.000599105
0.482698
0.000599949
0.101313
0.000599042
0.000598943
0.000742174
0.0133376
0.000598899
0.000599259
0.000754144
0.000599399
0.000599431
0.000599401
0.000801078
0.64851
0.000599399
0.000599399
0.000599094
0.000599332
0.000599399
0.000599228
0.000599399
0.000599399
6.79841
0.000599399
73.0108
0.000599062
0.000599399
0.000599256
0.000599532
0.000722381
0.000599177
0.000599399
0.000599399
0.000599399
0.127128
0.000599399
0.000598869
0.523445
0.000599257
0.488085
0.000599399
0.00309163
0.000599335
0.000599393
0.663366
5.60746
0.000598858
0.000599329
4.74733
0.000740583
0.000599399
0.000599396
0.000599399
0.000599399
0.000599398
0.480904
0.408985
0.497988
0.000599399
0.534669
0.000599399
0.000599301
0.000599162
0.000696112
0.000658715
0.000599399
0.000598912
0.000599399
0.000599017
0.000599234
0.000599399
0.000599352
0.000599314
0.000599673
0.00384663
0.000741968
0.000599399
0.112001
0.169118
0.000599399
0.000496226
0.0687546
0.000599399
0.000599399
0.000599055
0.375598
0.000599399
0.000599399
0.467081
0.000749137
0.000599399
0.000599399
0.000599399
0.000599398
0.000658438
0.123935
0.000599399
0.000599399
0.414112
0.000599399
0.000599399
1.30496
0.000598957
0.000599399
0.0005994
0.000599399
0.476795
0.000599066
0.000598867
0.000599399
0.0005994
0.000791718
0.000599399
0.413614
0.000741267
5.05316
0.000599399
0.000599399
0.000599399
0.000599335
0.000599122
0.000599399
0.0549503
0.120043
0.000705508
0.00251768
0.000599399
0.000721656
0.000599399
0.000599399
0.000599395
0.000599399
0.000599399
0.000599399
0.000599399
0.000599399
0.000598938
0.000599399
0.261253
0.000599076
0.682907
0.000599137
0.568457
0.552067
0.000599399
0.000727735
0.556292
0.0508454
0.0449269
0.00205619
0.000598944
0.0005994
0.000599399
0.0005994
0.0521054
0.0005994
0.118675
0.0213635
0.00785169
0.0121057
0.000659949
2.83701
0.000599399
0.137461
4.44547
0.000599399
5.1727
0.000604226
0.00059964
0.000599399
0.000599399
0.457504
0.000599226
0.5136
0.000746513
24.9816
0.361301
0.579539
0.000839887
0.000599399
0.000599128
0.00059923
0.000599315
0.000599791
0.000599399
0.000599399
0.000598929
0.0546572
0.00079233
0.00059927
5.07811
0.000599385
0.000599071
0.000599407
0.000599188
0.292034
0.109495
0.000599275
0.000599174
0.000599076
0.506241
0.0732829
0.000599023
0.00238269
0.532862
0.0127291
0.000599495
0.000599352
0.80159
0.575171
0.000599381
0.000599399
0.000599399
0.000599326
16.2669
0.000599433
0.378883
0.000599359
0.000599399
0.000599399
0.000599258
0.000612818
0.0206572
0.000599396
0.000598999
17.336
0.0963833
0.461643
0.000599394
4.38129
1.6106
0.000599399
0.0005994
0.000599358
0.667865
12.7155
0.000599399
0.000694254
0.000655091
0.000599397
0.000634168
0.030575
0.000599251
0.000599399
0.0005994
0.000599399
0.115863
0.000599432
0.000599373
0.000222635
37.7058
0.000670747
0.00064847
0.000626367
0.000598896
4.1353
0.362783
0.000599161
0.635266
0.296223
2.90536
0.000618267
4.54109
0.639722
0.000599335
1.52056
0.46688
0.000464122
0.000599079
0.000599355
0.000599399
0.000599066
0.000599238
0.000599436
0.000599331
1.01365
0.000599399
0.000599399
0.00371842
0.000599399
0.000599264
1.06375
0.0761449
0.000707221
0.000618344
0.000599049
0.130025
3.34557
0.467168
0.00059929
0.000598998
0.00059944
0.0924939
9.33595
0.000784946
0.000603524
12.2634
0.000599132
0.0149964
0.000598833
0.000599399
0.231111
0.000789545
0.000599501
0.00779726
0.000599271
0.000599374
0.109833
15.289
6.10033
0.000599424
0.000599099
0.000599399
0.000599038
0.000600727
0.00060075
0.000624325
0.000599399
0.000599399
4.01484
0.000599001
0.000599232
0.0492836
0.000599399
2.12824
6.06703
0.000599399
0.000599165
4.76688
3.1926
1.17064
0.0141099
0.000599131
5.55635
0.086586
0.000852642
3.63927
0.000601523
0.606011
0.000599309
0.000599399
0.00059904
0.146302
0.000889228
0.000599004
0.0228647
0.45833
0.015296
0.0978533
0.000599399
0.0436461
0.180993
0.000650922
0.000599399
0.000599399
0.000610945
0.000598927
0.000598964
0.178367
0.0006009
1.10879
0.00235381
0.00103584
0.000649413
0.000599235
0.000599229
5.08512
0.248622
0.0005994
0.000599634
0.000599399
0.152395
0.00059929
0.180305
4.63545
0.000599903
0.206895
1.17273
0.00710832
4.67823
4.8932
1.33216
0.000600414
0.552695
1.91061
0.000606607
0.00070323
0.000599399
5.83509
0.000599463
0.000599346
0.000954194
0.000603307
0.478058
0.000634864
0.000748242
0.582446
2.92676
0.000599334
10.7502
0.000814326
0.585539
0.670767
0.00059943
0.000404194
0.228885
6.50382
0.000814179
0.000599399
0.582276
0.000599399
0.00071659
2.4315
0.000731214
0.000599176
0.466436
0.0660562
0.000599388
0.117817
0.000599399
0.000599399
0.000599395
0.000599268
0.103158
0.000722579
0.000599399
0.114475
0.371085
0.000599378
0.000599306
44.6444
0.000599395
0.000599399
0.000599351
0.0956437
0.654437
0.000599276
3.67593
0.000599399
2.1733
0.223521
0.000602676
0.479615
0.814096
0.00846505
0.00116599
0.000599135
0.258775
0.000571585
0.161935
4.43849
0.00103036
0.000758493
0.0174182
0.000599399
5.58377
0.00059925
0.460941
0.000599367
0.00468061
0.000598995
0.000752262
0.000651813
0.0730602
0.183658
0.000749225
0.000598983
5.1214
0.436296
0.000599374
0.000599399
1.16389
0.0708094
0.0005994
0.620423
0.00059948
0.000603439
0.000203949
0.624012
0.00059927
0.000599059
2.41555
1.1921
0.000738161
0.000599446
0.000774462
0.000599395
0.00059924
0.0564975
0.000599399
0.495534
0.442511
0.000599431
0.00561626
0.000599399
0.259231
0.786378
0.000599399
0.000915743
4.60816
0.000599399
0.000599399
0.000599385
0.169627
0.000599399
0.000600205
0.000598841
0.000771455
0.000600165
0.000600784
0.000599266
0.000599399
0.000599181
0.000598921
0.000599399
0.00059938
0.000599231
0.000599289
0.000599287
2.81259
0.000599749
0.000599015
2.81799
0.000589585
0.000598985
0.000598986
0.000599472
0.000599399
0.000771455
0.000362232
0.000599398
0.000599325
0.000600308
0.000602462
0.109271
0.22933
0.000870488
0.400664
4.67014
0.000598965
0.000599398
5.75571
7.11853
0.00074318
0.624969
0.000599263
0.000599399
0.772663
0.000746198
8.66936
0.000726717
0.000787154
0.000703612
0.000599396
7.56286
0.000599188
0.0005994
0.000791368
6.19943
0.326303
0.367106
5.98478
0.000731597
0.000720315
0.00160711
0.000599181
3.39557
8.7015
0.000726082
1.08553
0.000599399
0.810038
0.000599397
0.000604511
0.000599391
0.00664113
0.000599399
2.43488
0.00059939
0.000599028
0.000790273
0.484878
0.124121
0.000600052
0.000599399
0.000599196
0.5372
0.000599055
0.000599399
0.429264
0.000599399
5.19206
0.000599394
0.000599172
0.000600431
0.000599368
0.000599184
0.000599399
1.52003
0.000599364
0.00389286
0.200788
0.000598936
0.000598881
0.000599464
0.000599318
0.000598905
0.000599369
3.6908
0.000599354
0.000599376
0.000599399
0.000760768
0.380227
0.000599398
0.000599291
0.000599399
4.90968
0.0005994
0.000599535
0.000599529
0.000599435
0.000599298
0.568278
0.000599158
0.000599138
0.000599313
2.45399
0.000600142
0.000599287
0.00059935
0.561708
0.000599581
0.000600176
0.000603903
0.000599158
0.000600221
0.000599399
0.0915955
0.000599399
0.000599399
0.000586716
0.00921318
4.61523
0.000599314
2.81915
4.31834
5.07912
0.000599053
5.31295
0.000605901
0.00072086
0.000599229
4.83358
5.56873
0.000599386
0.0005994
0.00059926
0.000599013
0.00210179
9.83776
0.000599399
0.000599399
0.000593206
0.000599265
0.00059958
0.446364
0.000598957
3.4766
9.75588
0.000599399
0.000603067
0.182326
0.000602079
0.000581239
0.000599399
0.00059942
0.456468
0.000598961
5.69337
0.000599389
0.000600656
0.000599003
0.602675
0.000780377
0.000599399
0.000599399
0.000599399
0.000599399
0.00059991
0.000599343
11.5352
0.000599399
0.000604494
0.000601459
0.000964768
0.000599394
0.100399
0.627738
0.000599397
0.0512478
0.0402164
0.000826082
0.000599293
0.000599399
0.537661
0.000472191
0.0873748
0.0500068
0.00059907
0.000599399
0.000933982
0.000599365
0.000612047
0.000599399
0.00059935
0.000753311
0.00507727
0.000599089
0.000599399
4.37482
0.000599399
0.000599328
0.000599399
0.000599399
0.893003
0.569104
8.79832
0.000599399
0.000599386
0.00059931
3.37341
0.0006024
0.477515
1.87185
0.000764035
0.000599335
0.000599164
0.00059904
0.000599399
4.30615
3.82946
0.000599399
0.000599031
0.000599335
0.000599399
0.475454
0.000599399
0.534105
0.000599399
0.559023
0.000754718
0.000369292
0.000599399
0.000599399
0.000599399
0.000599548
0.000599189
0.000599068
0.000599399
0.45738
0.000599453
0.000102013
0.168129
0.00507665
0.000599399
0.000599187
0.0005994
0.000599399
0.000600152
4.68196
0.000599399
0.000599358
0.000599395
0.58976
0.000574862
6.19602
0.0360444
6.37315
0.505922
0.000953318
8.76649
0.000597463
0.447473
0.000598695
0.000598236
0.000800138
0.150341
0.328831
0.00140033
0.000599241
0.504416
1.0237
0.000599399
0.000599399
0.000599679
0.000599383
0.000599258
0.000599192
0.000720941
0.381848
0.0005994
4.37236
0.737707
0.000599399
0.000599399
0.000599399
0.000599237
0.000599399
0.000599399
0.000599399
0.000759089
0.498848
0.000599692
0.00060901
5.18503
0.000600391
0.00237185
0.540188
0.000599333
0.00074738
0.00061121
0.000601004
0.000747181
0.00076558
0.000623858
0.665398
0.000598818
5.63257
0.000599399
0.000599399
0.00060804
0.000599416
0.000599561
0.000598964
0.000599399
4.75635
0.0005994
0.0005995
0.00059931
0.000599399
0.000599353
0.000599273
0.000599408
0.000599317
0.608483
0.000599399
0.000599803
0.000599
0.000602294
0.000599373
0.000599399
87.1777
0.000599032
0.000599247
0.400348
0.00060036
0.000599371
0.000598396
0.000609819
0.00279219
0.286723
0.000601755
0.000599399
0.000735411
0.000599089
0.000599355
0.000598999
0.0284286
0.000599001
0.000599384
0.000599399
0.108952
0.000718917
0.000599174
0.000750721
0.000598987
0.618533
0.000742464
0.000599473
0.000591087
0.0005994
0.000599399
0.000599382
0.000599399
0.000599399
0.000599083
0.000764749
0.000599399
0.000599194
0.000602388
0.61855
0.00479558
0.0005994
0.000600359
0.000787523
0.000600961
0.0573533
0.441415
0.0180462
0.000603348
0.000599316
0.000761099
0.000599399
0.000601903
0.0005994
6.52257
0.387753
0.000756405
0.490533
0.714991
0.00059926
0.0005994
0.783286
0.000599399
0.000599359
0.0567257
0.000727262
0.000599109
0.000599399
0.000600037
0.000599392
0.000599225
0.000598987
0.000599399
0.000599338
0.619042
0.000599396
0.000599399
0.00059939
0.000599365
0.000599399
0.152613
0.21185
0.000764671
0.000599274
0.000735551
0.00111916
0.000599396
0.000599399
0.00059939
9.64898
0.486768
0.432202
0.000599373
6.24473
0.000599399
0.000599287
0.213995
0.408025
0.000599473
0.000598997
0.000599399
0.00059895
0.000599087
0.000599374
0.000599369
0.000599425
0.000607067
0.0377613
0.693372
0.000598943
0.00059894
12.7495
0.000598958
7.98086
0.000599399
0.0007308
0.000599371
0.000599399
0.000599399
0.000454118
0.107176
0.000598028
0.000598821
0.000599399
0.000599399
0.000491569
0.00059935
0.809641
0.000720442
5.16791
0.431479
0.000599399
5.23142
0.000599399
0.000599392
0.000599399
0.000599399
0.00059939
0.000599102
0.581203
0.000599399
0.000977093
0.000599399
0.000599596
0.00059933
14.6568
0.000599393
0.000599346
0.824063
0.570945
0.000599399
0.000599164
0.000599398
0.000599361
0.00533573
0.000599399
0.570065
0.000599163
0.000599308
0.00157619
6.95042
0.000599453
0.000594964
0.000599264
0.00060024
0.000599399
0.000599399
5.29772
0.000599421
0.000599399
0.000853391
0.000599399
0.00059939
0.00059936
0.0005994
0.000598787
0.00107112
0.000599399
0.000599565
0.000222686
5.9002
1.47453
0.000599399
0.000599399
78.5217
0.000599399
0.000600481
0.729692
0.000599349
0.194282
0.287418
0.982536
0.536119
0.000599225
0.000599574
0.00059906
0.000599399
0.000599518
0.477217
0.000599069
0.458823
0.000599355
0.00654926
0.0039676
0.000599069
1.42123
0.000599139
0.000599491
0.000622751
40.9475
0.668069
0.000599399
0.517834
0.000599292
0.000599399
0.000599399
0.000599465
0.000599393
0.000599399
5.29253
0.491379
0.000599968
0.000599347
0.000600252
0.000599399
7.1013
0.000599399
3.6434
0.000599399
0.000599399
0.00059888
0.000728268
0.000599352
0.11
3.8327
0.000599366
0.000599273
0.000599399
4.62902
0.000599246
0.000599399
0.000599074
7.36088
0.000599397
0.000599399
0.0005994
0.000601427
5.97695
2.16211
3.1104
0.00615395
14.7223
0.000599184
0.000599355
0.000599009
0.000630598
0.000599003
0.000598944
2.87864
0.00066782
0.0721464
0.000599118
0.000599332
0.517685
0.475631
3.72354
0.000599399
0.000599227
10.5561
58.7224
0.00227827
6.74239
0.0701353
0.000599399
0.000599417
2.99237
0.000599398
0.000599399
0.000735344
4.08552
0.000508865
5.9537
0.53196
5.33788
0.000599137
0.108301
5.8987
0.000599168
0.000599298
5.64692
0.000599403
0.000598973
0.000599399
0.000599103
0.000601615
0.00067067
0.000599567
0.375826
0.000599377
0.000599399
0.000599138
0.0005984
0.000700944
0.0104274
0.000599058
0.000599381
0.000599399
0.203563
5.25049
0.000599283
0.000599318
0.000592278
0.000598949
0.000602347
0.000599399
0.000599399
4.46243
0.000600926
0.089961
0.000599399
7.81278
0.000599394
0.00201459
0.000433719
5.8653
0.000599399
0.000601771
0.000227179
0.000599381
0.000599399
0.000599148
0.000599399
0.000599322
0.000611967
0.0117151
6.58531
6.4834
1.81413
0.000735832
0.206784
0.000740105
0.000783697
0.000599399
0.000599399
0.000737991
0.000599395
0.000715361
0.000599399
0.000599531
0.000599204
0.00072606
0.000599398
0.000602999
0.000772479
0.000599399
0.000599399
0.000599419
0.000599394
0.000599363
0.000599399
0.371348
0.000599399
0.000599274
5.70667
0.000599394
6.14694
5.18724
0.499032
3.77674
0.490649
5.57248
0.542563
0.000599399
0.000599399
0.000599396
0.434304
0.000599399
2.16938
0.000599094
0.000599093
0.000599399
0.000599398
0.000599398
0.000599045
0.000599275
0.000597651
0.000599399
0.574281
0.000599394
0.000599399
16.8789
0.000599543
0.000599203
4.00702
0.414328
0.000599399
0.000599399
0.000599399
0.711772
6.37406
6.58087
2.43852
7.75468
0.000599252
0.000599399
0.000599399
0.000599315
0.000599382
0.000599399
0.000721438
0.000599399
0.000599399
0.000599399
0.000599571
0.000599118
0.000598951
0.000599707
0.000599374
0.105577
3.56635
5.65157
0.00898661
0.0976151
0.000599298
0.000599126
7.46763
0.000593684
0.000599399
6.6533
0.000744765
0.000599204
0.000599423
0.000972965
0.773204
0.0517802
0.000599218
0.000599399
0.000736321
5.50614
0.000599399
0.000599363
0.000599399
0.00986239
0.000591194
0.000599884
0.000803939
0.000599399
0.0005994
0.000599399
0.000598998
0.000599077
0.000599244
0.00059923
0.000599382
0.000599399
0.00059921
0.000599231
0.000599062
0.000599181
0.000604925
0.000599399
0.00779115
0.000610962
8.37843
0.100327
0.497538
0.538333
0.00119741
0.00054744
0.000599399
0.000599375
0.0005981
0.093
0.252449
0.424973
0.000600527
4.5282
3.79339
0.000428134
0.000922573
0.000731079
0.000442237
0.000599464
4.96158
0.00886272
0.183276
0.000599389
0.000599399
0.000599288
0.000599277
0.455835
0.000607798
0.00269522
0.000445338
0.000599079
0.000599264
0.000599032
0.000599366
0.000605897
0.000646458
0.000599119
0.000599042
0.718285
0.000451634
0.000599399
0.000599088
0.000598104
0.000599263
0.000599399
0.000599387
0.501996
0.0005994
0.000599399
0.000599399
10.1725
0.0005992
0.00060174
0.000603819
0.000599319
4.03105e-05
0.000599323
0.000599794
0.000599099
0.000622042
0.288726
0.146758
0.000599539
0.000460285
0.000598884
0.000599059
3.28824
0.856101
2.09821
0.0101458
0.653638
0.000599399
0.00207573
0.000599399
0.000599399
0.000599399
0.00059906
0.000599399
0.133546
0.000599297
0.231661
0.0115957
0.000599491
0.0005992
0.000967282
0.000600232
0.582021
0.000599399
0.00162576
0.000599399
0.000599169
0.000547299
0.000599393
0.000599046
9.64242
0.000599298
0.000599371
0.000599077
0.175455
4.76529
0.000599358
0.0319891
0.000599384
0.000599205
0.000599246
0.0005994
0.000599381
0.000599083
0.000598979
0.000599399
0.000599344
0.000599282
0.00400792
0.0005994
0.000473311
0.000599073
0.00118401
0.000754036
0.149638
11.3058
0.000599399
0.000599399
0.00059924
0.0409914
17.1332
0.000599399
0.000598763
0.0148217
11.676
0.00059977
0.162939
0.000324764
0.000598913
0.427136
0.444801
0.000598912
0.000599184
0.000599604
0.000599412
0.589257
0.000596199
17.8648
0.000599399
0.000599398
0.486131
12.4365
0.000599716
12.4834
8.58287
0.000599439
0.000599318
0.000760343
0.000599158
14.3681
0.000777022
0.000717037
0.000762971
0.000599248
0.000599038
0.576273
0.00142604
0.000599141
0.000599205
0.000599083
0.000599398
0.000599399
0.000599399
0.469095
0.646739
0.267717
0.000599399
0.000598983
0.000599399
0.000599547
0.000599925
0.0005993
0.000599227
0.000600479
0.00447178
0.000599042
0.376862
0.466674
0.000599399
0.000599392
0.00059896
3.48667
0.000599399
0.000601319
0.000795752
0.569972
0.000599467
0.000599399
0.000599204
0.000599397
0.000599579
2.85173
0.000600713
0.000599544
0.0932291
0.0138137
0.000599329
1.34824
0.000598199
0.000602283
0.000607776
0.000599151
0.905468
0.000599304
0.000599383
0.000599515
0.000598797
0.000599135
0.000598852
0.000775082
0.000599277
0.000663446
0.000599345
0.000601831
0.000600862
0.000599348
0.000599084
0.000599231
0.000814471
0.418141
2.47918
0.000602761
0.000600819
0.00072098
0.000599399
0.000810662
0.624711
0.000249807
0.000751046
0.215516
0.000599464
0.000905976
0.000636492
0.000599399
1.41375
0.631363
0.000576824
0.00074918
0.000725838
0.315901
0.00059935
0.000598801
0.000600057
0.038213
0.000598983
0.000599292
0.00604117
0.00059987
0.000599552
0.000801118
0.146273
18.6031
0.000599328
0.3198
0.000599356
0.318914
0.000599488
0.000599367
0.74814
0.000599272
0.000830589
0.489949
0.000600135
0.000779962
7.58346
0.000600176
0.0599367
0.000599454
0.562361
2.08897
0.000695193
0.000599281
0.000595191
0.0590524
5.30931
1.67689e-10
0.000599024
0.000599265
4.61837
0.000599396
0.000599377
0.00493928
0.000740449
0.000762584
0.000599281
0.000598914
0.000599157
0.557483
0.000599629
0.00059925
0.000599399
0.0980472
0.000599357
0.000599399
0.000607239
0.000875085
0.000599
0.000599371
5.67495
4.9386
0.000599399
0.000599394
0.641015
0.0203767
0.000599281
0.26832
0.000713407
0.000847468
0.0527277
0.000599041
0.00061239
0.000730627
0.000599385
0.000599272
0.44024
0.000599911
0.81055
0.000598892
12.0827
0.119676
0.00197116
0.359847
0.000602396
0.00346013
0.341816
7.31919
0.357948
0.748439
0.502309
0.000599189
0.000599219
0.519414
0.000599399
0.000599024
0.475515
0.129299
0.0005994
0.000599235
0.000599287
0.000599309
0.000758215
0.471449
0.000599135
0.0213678
0.000599311
0.00059896
0.350023
0.593753
5.27903
0.000599969
0.715969
0.4239
0.00135848
13.2821
0.0005994
0.000599369
0.000599371
0.00059924
0.000727554
0.000840937
0.000599371
0.000599215
3.73932
6.12926
0.000757703
3.98694
0.472288
2.47595
0.000722025
7.25544
0.000599191
6.09799
0.000736128
0.477661
0.000599391
0.000599399
0.264381
0.000599399
0.000599399
0.000599349
0.000599399
0.000599399
0.000726658
0.469748
2.52398e-05
0.000599399
7.53165
4.24328
0.000724603
0.000599399
0.000599399
0.000599261
0.000599389
0.0971916
0.000599329
0.656601
0.654808
0.0005994
0.000599399
7.26415
0.103888
0.907427
0.584528
0.000599109
0.000770356
0.543944
0.000599399
0.000599399
0.000599394
0.816879
0.000599399
0.000599399
0.000599399
0.000599399
0.000747069
0.0005994
0.000600265
4.57788
0.000661277
0.000850142
0.000599266
0.498316
0.556252
8.76153
0.00041284
0.000599399
0.80456
0.000599399
0.0005994
0.0005994
0.644326
0.000599399
0.000758995
0.575953
0.000599399
0.000599399
0.448368
0.0005994
0.000599399
7.25896
0.584425
0.000601007
0.59134
0.000599399
0.000599399
0.000599399
0.000599399
0.000599399
1.30004
0.000599399
0.819576
0.000741558
0.000599399
0.000599399
0.541245
0.000599386
0.434305
0.000732586
0.000599399
0.000599399
0.0005994
0.000599399
0.00071961
0.492747
0.000599399
0.000753427
0.505935
0.000599399
0.000599399
0.000732923
0.0005994
0.000599399
0.000736986
0.000727728
0.000599399
0.0005994
1.41301
0.453157
0.000748636
0.46098
0.560961
0.000604861
0.594666
0.000599399
0.000599399
0.000599399
0.000599399
0.000599399
0.000600393
0.00063433
0.0005994
0.000731572
5.83694
0.000745634
0.000599379
0.000599399
6.17088
0.0248403
0.000719888
0.602901
0.000599399
0.0414413
0.000599399
0.000599399
0.000599399
0.0005994
0.419984
0.0005994
0.560661
0.000599399
0.000599399
0.000599399
0.000599399
0.000748999
0.000719062
0.464226
0.736995
0.000599399
0.000599399
4.90372
5.4806
0.000599399
0.000599399
1.62493
0.793562
0.000600363
0.582807
0.000599231
0.000599401
0.000599399
0.000599399
0.000599399
0.000724613
0.617052
0.663139
0.000599399
0.000599399
0.000739682
0.000598961
0.460948
0.000599397
0.000599399