/*--------------------------------*- C++ -*----------------------------------*\
| =========                 |                                                 |
| \\      /  F ield         | OpenFOAM: The Open Source CFD Toolbox           |
|  \\    /   O peration     | Version:  2312                                  |
|   \\  /    A nd           | Website:  www.openfoam.com                      |
|    \\/     M anipulation  |                                                 |
\*---------------------------------------------------------------------------*/
FoamFile
{
    version     2.0;
    format      ascii;
    arch        "LSB;label=32;scalar=64";
    class       volVectorField;
    location    "0.2";
    object      U;
}
// * * * * * * * * * * * * * * * * * * * * * * * * * * * * * * * * * * * * * //

dimensions      [0 1 -1 0 0 0 0];

internalField   nonuniform List<vector> 
32842
(
(-0.654932 -0.422908 -0.28239)
(2.55341 -0.398818 -0.926887)
(7.1822e-13 2.39867e-12 5.85056e-13)
(1.82377e-12 6.16913e-13 -8.98977e-13)
(1.36189e-12 5.66624e-13 1.98911e-12)
(-4.99304e-13 2.37348e-12 -3.50541e-13)
(-21.68 7.94816 -9.26923)
(4.05214 -19.9257 5.26016)
(1.21723e-12 1.18087e-12 2.8074e-12)
(5.0304e-13 -1.73484e-12 -9.7895e-12)
(2.94383 22.0721 1.30532)
(15.7892 -23.8165 5.46635)
(-1.19467e-06 4.69716e-07 -3.86738e-06)
(1.09916e-12 -4.92532e-13 -2.25873e-13)
(-6.05342e-13 -6.12451e-14 -1.02404e-12)
(0.177088 -0.771448 0.101025)
(-3.48645e-09 8.89205e-10 -1.28749e-08)
(1.25388e-12 -1.30619e-12 -1.38026e-13)
(-0.924435 -0.555016 -0.389984)
(-6.55404e-15 1.19585e-12 -8.09295e-13)
(-1.82673e-13 6.80827e-13 1.29955e-13)
(2.24562e-09 -3.84373e-09 -5.57699e-09)
(5.86636e-14 -1.39099e-12 -1.01414e-12)
(1.10548e-12 9.3978e-13 -8.0814e-13)
(2.39577e-09 -1.48701e-08 -4.71473e-08)
(-5.61889e-13 1.17744e-12 -2.16497e-12)
(2.20831e-13 2.44828e-13 -1.58932e-12)
(6.03568e-15 4.09759e-13 1.4495e-12)
(32.7772 -2.72205 2.56098)
(6.42626e-05 0.000158274 -0.000252463)
(39.2594 -1.00264 -2.19478)
(-3.73995e-14 2.66293e-14 1.66347e-12)
(0.815875 -20.6944 -8.50802)
(0.00156178 -6.36477e-05 -0.00267489)
(1.68598 -21.778 -8.14601)
(12.613 -15.7118 0.54096)
(-0.00873906 -0.00829981 0.00768667)
(0.000242513 -0.000838707 -0.000430958)
(0.0139557 0.0384075 -0.0899716)
(-0.126037 -0.204668 -0.0852613)
(-1.57534e-12 -2.39716e-12 5.16904e-13)
(2.27185e-12 1.69495e-12 1.76474e-12)
(8.50574e-13 2.1027e-12 2.27214e-12)
(1.47818e-12 1.57481e-12 -1.85596e-12)
(0.177812 0.135549 0.247276)
(-1.63615e-05 -2.55105e-05 -9.15528e-05)
(-39.3197 0.0786221 0.610065)
(-0.0703807 0.223464 0.388859)
(8.44672e-13 -1.7841e-12 -5.62416e-13)
(-32.1834 3.50959 5.0331)
(-2.24858 -22.37 -6.77183)
(1.92189e-12 4.2984e-13 -2.35717e-12)
(-3.45436e-06 3.30037e-05 -0.000556869)
(38.2591 0.652805 -1.49892)
(1.34725e-12 -1.36327e-12 -1.00489e-12)
(-2.13728 -2.53328 7.3537)
(-6.66999e-13 -1.50292e-12 3.38959e-13)
(0.390519 39.3845 0.623175)
(5.63651e-14 -1.17987e-12 -4.89489e-13)
(2.34917e-13 -9.70872e-13 -1.40214e-12)
(4.7251 -10.774 -0.108662)
(-0.0244973 -0.151951 0.188433)
(3.5037e-12 -1.56552e-12 -7.80903e-13)
(-3.52322e-13 5.93524e-13 -1.55908e-12)
(-0.168148 0.0435329 -0.501198)
(-46.4349 2.2055 -4.9365)
(1.63238e-12 1.65233e-12 -3.26226e-14)
(-0.00166108 -0.0024493 -0.0159294)
(-5.01349e-13 1.20888e-12 3.69592e-13)
(1.97622 0.615919 2.42243)
(5.96918e-13 1.90974e-12 -1.45578e-12)
(-13.2381 6.72923 -0.760724)
(-9.69523e-13 -8.28796e-13 -8.3374e-13)
(1.86383e-13 8.26152e-13 -6.33149e-13)
(2.24418e-12 -8.84786e-13 9.04036e-13)
(0.50046 0.44945 0.699106)
(36.1011 -0.762723 0.824373)
(-2.42187e-12 -5.62988e-13 -8.27391e-13)
(-5.82397e-12 -1.58493e-11 -4.27905e-11)
(-1.78648 -27.3164 2.43216)
(-3.89143e-14 9.96331e-13 1.23268e-12)
(1.84472e-13 1.65859e-12 -4.52747e-14)
(2.79499e-12 1.42574e-12 7.63159e-14)
(2.9133e-13 9.73081e-13 3.29708e-13)
(4.3466e-13 4.24762e-13 1.24812e-13)
(1.75633e-12 -3.71073e-14 3.00291e-12)
(2.67463e-12 -2.17673e-12 -7.63586e-13)
(3.34593 1.24713 4.53759)
(-2.73321 -33.233 -1.48302)
(-5.7151e-13 9.74023e-13 -3.18528e-13)
(-4.92236e-11 -7.44039e-11 -1.20687e-10)
(-9.70824e-13 -1.26354e-12 2.18859e-13)
(-30.0088 3.28328 3.81595)
(2.35711e-13 1.95472e-13 -7.91569e-13)
(-1.35584e-12 -1.66663e-12 6.64947e-13)
(-0.0629365 -0.213099 0.0764873)
(2.44024e-11 -1.00368e-10 -8.80609e-11)
(1.36602e-13 -1.12972e-12 -2.47266e-12)
(1.80559e-12 1.78139e-12 1.64926e-12)
(-3.31014e-13 1.72455e-12 2.24304e-12)
(1.60967e-12 2.8244e-13 1.14916e-12)
(-0.0187042 -0.0133293 0.0115384)
(-4.86711 2.72942 1.06064)
(22.2965 1.46158 4.42084)
(-2.79896e-10 -1.92541e-10 -4.19252e-10)
(3.61021e-06 -8.84737e-06 3.10143e-06)
(-2.81551 21.1196 1.76925)
(-3.02483 1.16238 -2.60766)
(0.434757 0.245771 0.167374)
(-0.621377 1.30999 1.69451)
(-5.46365e-13 7.08601e-14 -1.78013e-12)
(-5.31106e-13 -5.36225e-12 -1.67211e-11)
(3.2855 -41.723 -6.52393)
(5.39851e-13 5.84632e-13 -2.08233e-13)
(-5.34272 -0.936564 2.12595)
(3.30447e-13 1.66639e-12 2.58937e-12)
(6.65929e-14 1.42746e-12 3.23312e-13)
(5.59756 -4.56445 -15.9757)
(-4.80671 -0.296656 0.369085)
(-0.245904 0.128931 0.206834)
(-4.92225e-12 1.33741e-11 -2.22633e-11)
(1.84473e-13 -1.01999e-12 -1.2435e-12)
(0.251423 31.523 1.96766)
(3.59042e-13 -1.71371e-13 -1.68702e-12)
(-1.65307 -1.50086 3.53688)
(3.49691e-13 -7.52364e-13 -1.56212e-12)
(0.00380011 -0.0137292 0.00949142)
(0.00553169 -0.000326117 -0.00415328)
(-2.413 35.4607 5.83781)
(-1.1029e-12 -6.26257e-14 2.89184e-13)
(-1.11724e-12 -1.03307e-12 -4.38994e-14)
(-5.67791 -1.70017 3.21474)
(0.249147 -0.245913 -0.0214862)
(-0.225208 -0.242246 0.00389126)
(0.374421 0.044045 -0.205481)
(-0.537785 0.43315 -0.390736)
(-7.54979 -0.587779 3.52487)
(2.44322 -0.0200203 6.98049)
(-0.0301832 -0.231677 0.152204)
(-0.0240052 -0.307597 0.205005)
(8.55295e-07 -1.41338e-07 -1.30206e-06)
(-0.000279326 0.000206605 -0.000381446)
(7.5685e-14 2.95456e-13 7.04212e-13)
(-3.54854 -7.6549 7.13091)
(0.361684 -0.210357 -0.550684)
(-1.18497e-05 3.03636e-05 -0.000223805)
(28.0585 7.78617 4.31379)
(1.75408e-05 -1.51465e-05 -0.000301699)
(-8.17608e-13 -1.63529e-13 6.27436e-13)
(1.5471e-09 1.24253e-09 -5.12952e-09)
(-0.939662 -2.29761 5.57956)
(-0.999122 0.486593 1.94703)
(8.3117e-10 -1.07187e-09 -2.55246e-09)
(2.95892 37.3496 0.519277)
(-0.629108 0.980139 0.425968)
(-4.79512e-13 -1.60982e-12 1.82656e-12)
(-1.93154e-12 -1.18677e-12 -2.12794e-13)
(-0.000259102 -0.000462152 -0.00137506)
(-0.620166 0.325055 -0.370994)
(1.75141e-12 -4.80027e-13 1.34685e-12)
(-0.805575 0.629013 -0.442446)
(-1.43754e-12 -2.16275e-12 -4.11213e-13)
(6.21629e-13 2.01465e-13 -2.37324e-12)
(-4.44797e-14 7.63625e-13 -6.53941e-13)
(-0.193541 1.3353 -0.991701)
(0.000168376 0.00018058 -0.000599526)
(-4.09707e-13 -1.50753e-12 4.62273e-13)
(-1.04258e-05 -3.76237e-06 -2.27632e-05)
(0.179095 0.063844 0.165296)
(26.6202 -0.134162 -4.72583)
(1.40717 1.01271 8.55036)
(0.433218 -0.0525486 -0.445929)
(-11.7119 -2.47588 19.7055)
(1.04934e-12 -1.23198e-13 -5.16998e-13)
(2.24401e-12 -2.74951e-13 1.21865e-12)
(-7.37333 8.05285 18.0728)
(2.72859e-05 7.71756e-06 -1.30031e-05)
(-2.49444 -2.24782 2.99373)
(5.14353e-13 -2.78787e-12 -1.06744e-12)
(7.82039e-13 -7.64306e-13 -3.63376e-12)
(-0.0353544 -0.0138527 0.0403209)
(-3.95615e-08 2.17847e-08 -5.44631e-08)
(7.40901e-09 -1.76546e-08 -2.60689e-08)
(-1.65452e-12 2.04459e-13 1.81031e-13)
(-2.57594e-13 -1.07967e-12 8.87335e-13)
(-2.36345e-08 3.5011e-09 -5.42614e-08)
(0.256678 0.470326 0.712668)
(-4.82592e-10 -1.28973e-10 -3.92881e-10)
(0.352752 -0.0319701 -0.0358908)
(-1.98878e-07 -2.30639e-07 -6.67437e-07)
(-4.70576e-08 -7.37276e-08 -1.0498e-07)
(1.93224 1.54912 1.56586)
(9.59493e-13 -7.65363e-13 -2.37509e-13)
(7.97257e-13 5.91555e-13 -1.77442e-12)
(2.37464e-12 4.26275e-13 2.36606e-12)
(-0.00446224 -0.0235572 -0.00812271)
(-0.000106081 0.000268299 0.000421722)
(0.00265551 -0.00491616 -0.00908343)
(5.07297e-13 8.48907e-13 -1.27426e-12)
(-3.47883e-11 -1.16404e-11 -6.40304e-11)
(-0.107129 0.0161212 0.0675951)
(-0.00106321 -0.000836924 -0.0139795)
(-1.60429 -0.982229 6.37382)
(-38.2347 -1.10081 -3.576)
(-0.558794 40.9546 -1.8117)
(-0.822053 -0.609867 0.0336921)
(-0.221458 0.322525 0.111069)
(-2.02844e-12 -6.67539e-13 6.48865e-13)
(-1.70675e-12 2.57764e-13 1.64151e-12)
(-0.116345 -0.190586 -0.139263)
(-0.258618 -0.53074 -0.647555)
(-0.298289 -0.463759 0.671619)
(2.6145 9.79706 17.4759)
(2.47373 8.06692 16.9403)
(-1.79453e-09 -2.2693e-10 -8.0166e-09)
(-8.23452e-13 -1.31225e-12 1.82844e-12)
(-0.049799 -0.162264 -0.0271451)
(-0.176758 -0.114546 -0.0818749)
(-0.129413 -0.439631 -0.434894)
(0.130408 -1.00032 0.45552)
(-6.40631 -7.51105 -9.05277)
(7.15998e-13 -1.82474e-12 1.51779e-12)
(7.69958e-13 -6.69872e-14 1.16206e-12)
(-0.242023 -0.500506 -0.459324)
(0.241558 0.842562 -0.35736)
(-0.108829 -0.333185 -0.638102)
(3.00348e-13 5.00456e-13 1.57212e-12)
(1.76769e-12 2.57643e-13 -2.23246e-13)
(0.191671 -0.46071 -0.466652)
(1.65846 -42.5668 2.45699)
(-1.17682e-13 4.08164e-13 1.14624e-12)
(5.97174e-12 -4.85627e-12 -1.70536e-11)
(0.0149629 -0.00294434 -0.0139661)
(1.01921e-12 -3.14067e-13 -4.32536e-13)
(-6.3424 -25.7332 23.1491)
(-1.45631e-13 4.63026e-14 -5.90066e-14)
(-1.62533e-12 -6.34074e-13 -1.28182e-12)
(1.10281 4.10645 4.67437)
(-0.031687 -0.0434666 -0.00783231)
(-5.44893e-13 2.97658e-13 -9.7248e-13)
(0.130031 35.5793 1.42372)
(2.63014e-09 7.26014e-09 -1.61211e-07)
(-0.200705 -0.259087 -0.224959)
(37.5012 1.19278 -1.31351)
(0.526824 0.0165655 0.358235)
(0.00754787 0.0138937 0.0193799)
(9.34708e-14 -1.1482e-12 -5.25782e-14)
(4.94052e-13 4.41494e-13 -1.99423e-13)
(3.44757e-13 1.00398e-12 -1.68595e-12)
(2.15833e-09 -1.53181e-09 -3.10239e-09)
(-6.71596e-13 -5.76242e-13 7.92006e-13)
(2.8612e-13 8.62555e-13 3.94177e-13)
(-0.0673164 1.01458 -0.779507)
(1.99387e-12 1.26378e-12 -9.42342e-12)
(0.00567982 0.00356564 0.0051411)
(-8.6323e-14 4.66757e-14 -5.54618e-14)
(-3.37812e-08 1.32102e-07 -5.80247e-07)
(2.46379 5.72639 15.4589)
(-1.3725e-08 7.25156e-09 -1.32695e-08)
(0.000232793 -0.000170302 -0.000519441)
(-1.39092e-12 -6.38742e-13 2.87929e-13)
(1.1479e-13 5.1638e-13 4.41167e-13)
(3.82481e-13 2.78936e-13 2.83417e-13)
(-1.99236e-12 -2.11834e-13 1.62025e-12)
(-1.19938e-12 6.0793e-13 7.21262e-13)
(-1.57218e-12 -1.38462e-12 1.06001e-12)
(9.45113e-13 -1.86608e-12 -8.37075e-13)
(2.27968e-07 -1.56303e-06 -1.4325e-06)
(0.00173182 -0.00217462 0.0024434)
(-7.41282e-13 -2.7707e-13 -6.37395e-13)
(1.35103e-12 -6.89852e-13 2.0041e-13)
(-1.72946e-12 3.91726e-13 1.26107e-12)
(9.8239e-13 -2.357e-13 1.4095e-13)
(8.58617e-12 -1.09813e-11 -1.45524e-11)
(6.84217e-13 -1.75802e-13 2.45488e-12)
(1.7329 -3.01203 13.3973)
(-0.129852 -0.0914516 -0.0768871)
(0.142738 -0.0685641 0.0761613)
(-2.59182e-13 -1.02091e-12 3.22473e-13)
(0.281462 0.280292 -0.215934)
(-1.0579e-12 -5.48427e-13 -2.64757e-12)
(9.67641 16.4717 -15.4536)
(43.9491 -3.20256 0.0281843)
(1.34653e-13 1.76416e-12 -2.07492e-13)
(-0.640389 -0.665286 -0.549463)
(-0.862619 -1.81056 3.80392)
(11.5276 14.9807 -4.23415)
(-1.4842e-12 -7.1364e-13 -2.16921e-14)
(-6.38784e-13 2.25686e-12 -2.18985e-12)
(-1.0438e-12 2.07477e-12 9.97943e-13)
(11.6842 1.55123 0.0741793)
(-2.1227e-13 7.5995e-13 1.78277e-12)
(-9.55153e-13 -8.2273e-13 2.10541e-12)
(-1.31304 28.7946 10.0287)
(1.286 32.3267 1.04652)
(-0.829982 -1.23797 2.87407)
(-8.87886e-14 -5.00399e-13 1.53995e-12)
(1.54127e-12 3.47218e-13 -5.93349e-12)
(-0.00405712 -0.00243723 0.0197787)
(2.18655e-13 1.28023e-13 -1.17354e-14)
(-40.2853 38.3276 -21.2896)
(2.37276e-12 -1.10262e-12 -1.08971e-12)
(1.08346e-10 2.04508e-10 -8.56845e-10)
(-6.9354e-11 -9.66675e-11 -2.88361e-10)
(-1.30231e-12 -1.11644e-12 1.02723e-13)
(-5.61157e-13 -1.56983e-12 1.13896e-12)
(-1.36271e-12 1.52794e-13 -2.03087e-12)
(5.11037e-13 2.03901e-12 -1.04609e-13)
(9.5115e-05 0.000451116 0.000231684)
(1.82106e-12 -7.27125e-13 -6.36261e-12)
(5.72773e-10 -2.09627e-10 -3.49237e-09)
(2.36179e-12 -5.75175e-13 -8.71136e-14)
(4.36141e-13 1.51544e-12 1.61809e-12)
(-4.57827e-11 -4.50525e-11 -8.2166e-11)
(1.60493e-12 -9.8859e-13 5.42584e-13)
(-2.92844e-09 -2.24033e-09 -6.218e-09)
(-0.0108797 -0.051657 -0.0714142)
(-14.1225 -2.23015 35.5777)
(-2.10785e-12 1.62432e-11 -2.3121e-11)
(0.000139578 -3.38822e-05 -0.000286306)
(-0.0184872 -0.0664136 -0.129518)
(2.97902 -36.4603 -2.31848)
(-5.53218e-11 -1.85323e-10 -3.32116e-10)
(-6.2557e-13 -1.87345e-12 -1.15398e-12)
(7.51604e-13 1.62392e-12 4.92606e-13)
(1.26975e-10 -6.74705e-11 -1.1271e-09)
(-0.0984255 -0.141548 -0.0712886)
(-3.84942e-13 6.71086e-13 -1.66322e-12)
(-0.0660322 -0.328192 -0.593318)
(2.72021e-13 7.57301e-13 8.41401e-13)
(-0.22634 -0.0421125 -0.152484)
(6.7227e-13 -1.59399e-12 -3.6615e-13)
(9.75426e-13 -1.39434e-12 2.03333e-12)
(4.36315e-13 4.30827e-13 8.23168e-13)
(9.44393e-06 -1.82254e-06 -3.85932e-06)
(1.13389e-12 9.90549e-13 1.36134e-13)
(1.87296e-12 8.11521e-13 -1.71138e-12)
(4.45847e-13 1.6169e-12 9.84793e-13)
(9.09046e-13 1.37488e-12 -5.31888e-13)
(9.08156e-08 -5.96393e-08 -1.53495e-07)
(-2.80794e-05 -1.73568e-05 -3.54808e-05)
(-0.365055 0.216202 -0.188713)
(-5.717 -5.88308 2.96789)
(1.53376e-13 2.93703e-13 -3.63203e-13)
(1.8084e-13 3.14157e-13 2.1561e-12)
(1.01634e-12 -1.25885e-12 -1.93085e-12)
(5.84288e-13 -1.58525e-12 -7.96473e-13)
(1.76684e-12 3.14584e-13 4.14507e-13)
(-5.59064e-13 -8.79243e-13 1.53709e-12)
(-5.3664e-13 -1.54174e-12 -1.65886e-12)
(-0.096749 -0.212014 -0.313407)
(4.78354 24.1462 4.82644)
(-0.445747 0.604435 -0.464302)
(-2.77141e-13 -4.89196e-14 -6.84518e-13)
(3.32948e-12 -2.29821e-12 -2.52561e-12)
(-3.86542e-06 1.11297e-06 -9.82283e-06)
(-2.31114e-06 3.57199e-06 -5.15196e-06)
(-0.0306154 -0.118396 -0.0942683)
(-4.73011e-11 -6.20005e-11 -1.08721e-10)
(-0.0601508 -0.134859 -0.17051)
(3.18262e-13 -4.78806e-13 3.90475e-12)
(1.52311e-13 2.84772e-13 -2.37203e-12)
(0.00341914 -0.0171015 -0.0305684)
(-6.05712 27.7794 3.07334)
(-1.28597e-12 2.15441e-13 -8.21248e-13)
(1.76563e-13 -1.95342e-12 1.96918e-12)
(8.37917e-13 1.50437e-12 -1.22166e-12)
(8.87604e-13 1.25205e-12 -2.65527e-12)
(4.82276 -5.20775 2.19287)
(-1.83032e-12 1.04049e-12 3.66874e-13)
(-1.48948e-12 9.76344e-13 -1.57321e-12)
(15.0704 17.1412 15.6979)
(-7.25469e-06 4.22485e-06 -7.03366e-06)
(-0.732745 -0.0955473 -0.507016)
(-1.25024e-13 1.14032e-12 3.00166e-13)
(-0.524179 -0.226765 0.284768)
(-0.00352486 -0.107206 -0.0999078)
(-9.1082e-13 1.54337e-12 1.79059e-12)
(-4.06066 2.99453 2.19283)
(5.02936e-13 3.26227e-13 -1.44182e-12)
(0.00355389 0.961268 -0.0539642)
(9.06158e-13 -7.52304e-13 1.98761e-12)
(-0.0699152 -0.278819 -0.197169)
(0.00258989 -0.00209657 -0.00590646)
(-0.00221488 -0.0880006 -0.0419697)
(-5.9147e-13 1.04526e-12 -4.02252e-13)
(4.67903e-13 1.44176e-12 -7.52282e-13)
(-1.76367e-12 -3.81828e-13 -1.22082e-12)
(-1.5551e-13 -2.29462e-12 1.71109e-12)
(5.64543e-06 -2.85959e-06 -1.27811e-05)
(8.30803e-09 1.59604e-08 -1.73397e-08)
(-0.000245165 0.000460211 -0.000296668)
(-2.0745e-09 -1.08418e-09 -1.66271e-09)
(8.30616e-13 7.07575e-13 -6.12587e-13)
(-0.294791 -0.416367 -0.481042)
(3.5025e-13 -8.07113e-13 -9.15502e-13)
(-0.317659 -0.182463 -0.608546)
(-0.117736 -0.110438 -0.178328)
(-0.0267715 -0.0571348 -0.123577)
(-0.881357 0.294368 1.01054)
(3.22514 7.04406 24.5726)
(2.42085e-12 -6.34045e-13 2.03398e-12)
(0.813282 0.151393 0.111924)
(-1.22693 1.47254 -2.88172)
(0.371362 21.7606 23.3202)
(0.0738189 0.244499 -0.380745)
(0.00341631 0.000685437 -0.000628162)
(-0.533735 0.218109 0.71009)
(9.21439e-13 -8.17413e-13 1.59059e-12)
(0.0017961 -0.0168637 0.0134671)
(0.20628 -0.395501 0.226989)
(1.2267e-06 7.6814e-07 -1.79095e-06)
(6.94873e-13 -1.173e-13 1.79376e-12)
(-0.418363 -0.359737 -0.66224)
(3.97338e-08 -3.09864e-08 -1.97731e-07)
(0.339661 0.32682 -0.425552)
(-0.323548 -0.108249 -0.62339)
(-0.294346 0.571769 -0.456752)
(-0.0360698 -0.327432 0.111191)
(17.5568 17.719 -121.864)
(-0.221098 0.348862 -0.115538)
(-0.0109012 -0.00895783 -0.0322475)
(-1.8228e-12 8.91976e-13 -5.58414e-13)
(2.80614e-07 1.5682e-07 -1.46766e-06)
(-13.4863 21.3516 -21.9422)
(1.10923e-12 -2.76535e-13 1.213e-12)
(-5.07285e-05 4.18539e-05 -0.000118329)
(-1.09313e-12 1.87824e-14 1.38865e-12)
(-0.398273 -0.630384 -0.673652)
(8.04189e-13 1.98898e-12 -4.46144e-13)
(-0.493258 0.2466 0.469522)
(-2.03376e-13 -1.82919e-13 -8.79753e-13)
(1.44843e-12 8.36587e-13 8.49013e-13)
(0.00622183 -0.00780186 0.0122302)
(-9.76799e-13 3.85261e-13 1.09548e-12)
(-4.84807e-13 -1.34168e-12 8.79732e-14)
(0.396691 -0.456566 -0.447108)
(31.7238 9.35849 10.9327)
(-1.19392 42.4509 -2.94481)
(5.78705e-13 -1.61364e-13 -1.43013e-12)
(-1.36205e-13 -5.83386e-13 -3.53068e-12)
(-31.3999 1.10575 2.64733)
(0.106657 0.0640528 -0.0504381)
(-4.82423e-13 6.75436e-13 -1.11276e-12)
(-1.34674e-09 4.42776e-09 -9.19393e-09)
(0.0247588 -0.383105 0.453758)
(2.26895e-12 -4.23742e-13 -2.02947e-12)
(1.42936e-12 1.81037e-12 9.49378e-13)
(2.33498e-13 8.90251e-13 -3.40462e-13)
(-4.88964 -1.78221 -6.1853)
(2.0214e-12 1.23737e-13 -9.1666e-14)
(0.00513557 -0.00958437 0.00409879)
(-0.307575 0.399089 -0.153468)
(0.868299 30.6673 0.431664)
(-1.64239e-12 -1.92736e-12 2.00782e-12)
(0.0115398 -0.00110341 -0.00423539)
(-0.668375 -0.470235 0.470006)
(3.77497e-13 -6.28413e-13 -7.9971e-13)
(-0.519177 0.298302 0.471649)
(-0.143329 -0.318225 -0.323925)
(1.17183e-12 2.11098e-12 -2.47129e-12)
(-2.05121e-12 -9.08143e-13 -8.74865e-13)
(6.17494e-15 -1.88262e-12 -1.77671e-12)
(-1.2392e-12 -4.49011e-13 -3.41186e-13)
(6.63464e-13 -5.20849e-13 -2.66805e-12)
(-1.04158 0.355659 0.0276966)
(3.65175e-06 -7.73031e-06 -5.09045e-05)
(4.10176e-13 1.07671e-12 1.29171e-13)
(4.18583e-05 1.40956e-05 -2.0885e-05)
(0.815285 2.84941 -0.326505)
(2.04531e-12 -1.28182e-12 4.02355e-13)
(2.02682e-13 8.8009e-13 -1.54603e-13)
(2.50674e-13 -9.25987e-13 -8.52394e-13)
(1.94792e-12 -9.50659e-13 -5.37328e-13)
(-0.39617 0.0515638 -0.444074)
(-9.81602e-13 5.53551e-13 2.256e-12)
(1.44449e-12 -9.43957e-13 1.61911e-12)
(-8.42759e-13 6.64199e-13 -1.01562e-12)
(1.4258e-12 1.36986e-12 1.97197e-12)
(1.10501e-12 -8.17328e-13 7.31977e-13)
(3.48438e-13 -6.52747e-13 -7.13592e-13)
(1.97416e-12 -1.29407e-13 7.98674e-13)
(-0.301985 -0.257291 0.677622)
(-35.5753 -1.75785 0.283543)
(7.82377e-14 1.44382e-12 2.15772e-12)
(4.02547e-11 1.88369e-11 -8.47567e-11)
(-1.01478e-12 2.68105e-13 6.13149e-13)
(-1.97242e-12 8.26844e-13 -2.01716e-13)
(1.77748 1.7258 -1.10396)
(-1.53999e-12 7.64511e-13 2.05328e-12)
(0.0202587 0.0101023 0.0270053)
(0.690173 5.04626 -0.257508)
(3.24189e-13 4.38392e-13 4.25872e-13)
(-1.61088 -1.04897 -0.353736)
(0.0299421 0.0148674 0.0434129)
(1.20302e-12 9.23795e-13 1.97965e-13)
(-1.34943e-12 4.38377e-13 8.46414e-13)
(1.26663e-12 1.0414e-12 -9.6189e-13)
(1.98269 6.16347 1.56106)
(-0.000248976 0.000661511 0.000399224)
(1.99344e-07 -7.30694e-07 -1.04717e-06)
(6.01265 18.8204 11.0959)
(-0.85045 -1.05556 -0.0187686)
(3.0221e-13 -8.47727e-14 -9.54352e-13)
(0.0027861 0.000265837 0.000908715)
(7.75835e-13 2.35366e-12 3.20543e-12)
(1.10135e-12 -2.05626e-12 -1.06947e-12)
(-2.69103e-13 3.09392e-14 1.08799e-13)
(8.13097 14.4271 8.88093)
(0.0455239 -0.226245 -0.276236)
(-1.19219e-06 -4.71105e-06 -4.81813e-06)
(9.54255e-13 -1.42679e-13 -1.70368e-13)
(5.64418e-05 -0.00332797 0.000629006)
(-0.0153551 -0.176621 -0.132172)
(3.60839e-06 -1.00371e-05 -4.27819e-05)
(2.23475e-12 2.6253e-13 -4.9532e-13)
(-0.0413714 -0.065658 -0.0520386)
(-0.719481 0.163381 -0.925408)
(-2.42239 22.2623 6.98469)
(-8.36956 9.3799 0.955818)
(-0.0228177 40.2944 -1.46406)
(13.6146 5.58283 8.93721)
(-0.0464192 14.1051 12.0645)
(-1.59966 9.5307 12.1637)
(0.42088 31.9976 5.08409)
(2.07898e-05 1.58858e-05 -2.54216e-05)
(-0.31741 0.0558808 -0.668584)
(1.25999e-08 1.16566e-08 -7.70503e-09)
(-0.541402 -0.144282 -0.548473)
(6.05536e-13 -7.73895e-13 6.74808e-13)
(39.546 0.434675 -0.89531)
(-1.13182e-12 4.68515e-13 1.32801e-12)
(-4.278 6.2068 2.31891)
(-0.176867 0.109981 -0.350921)
(-4.95778e-12 7.87718e-13 -3.68229e-11)
(6.3532e-13 -7.22251e-13 2.01926e-13)
(-22.8804 2.65835 0.103248)
(-1.22115e-12 1.3807e-12 5.95071e-13)
(20.4774 19.3135 1.73835)
(-37.6126 -1.22481 -1.27492)
(-0.229876 0.159399 0.337544)
(-2.37796 31.3097 1.926)
(1.20855 1.93309 0.71755)
(1.0613 7.70895 11.1062)
(1.68215e-07 -4.66717e-08 -6.23034e-07)
(5.95312e-13 3.05645e-13 -1.61337e-13)
(-0.243151 0.0922867 -0.0264055)
(-2.54749e-13 -1.18869e-13 -1.27838e-15)
(17.8207 24.9597 20.9915)
(-7.09572e-13 8.78944e-13 -1.29693e-12)
(-1.67313e-12 -2.09673e-12 -4.72381e-13)
(-0.00127708 -0.000944532 -0.00335384)
(0.562982 26.4017 -2.29732)
(9.53422e-08 -2.90346e-08 -9.67054e-08)
(-0.000654139 -4.1688e-05 -0.000778436)
(-0.31713 -0.513979 -0.240083)
(2.6995e-10 1.15775e-09 -1.59334e-09)
(-2.59231e-14 -1.33691e-12 -7.76159e-14)
(1.52811 32.2484 -1.02531)
(2.01142 25.9317 -2.61731)
(4.27483e-13 1.83299e-12 8.1118e-13)
(-1.11104e-12 -5.68427e-13 3.98265e-13)
(-0.480878 0.441154 0.558397)
(-0.010461 -0.0304656 -0.111691)
(0.498327 29.9187 -1.25299)
(-4.88534e-14 -1.05003e-12 3.11114e-12)
(-0.226804 -0.662597 -0.615376)
(-1.39523e-11 -4.90392e-12 -3.08923e-11)
(-1.08712e-12 9.92257e-13 2.54635e-12)
(-1.3427 35.2083 -1.19663)
(-1.00482e-12 -4.83196e-13 2.00837e-12)
(-0.00639756 -0.0306333 0.02499)
(-0.677826 36.931 5.17504)
(-1.08887e-12 3.5945e-14 2.04228e-12)
(3.32486e-12 5.27633e-13 1.98246e-12)
(2.32828 15.3018 -3.48205)
(-0.00482742 -0.00893327 -0.00809524)
(-0.237638 0.5937 -0.0421152)
(1.33489 33.7325 -6.3792)
(-7.03738e-13 2.56137e-12 1.43972e-12)
(-2.02939e-12 -9.87584e-13 -6.4219e-13)
(2.50035e-13 2.77631e-12 -2.89179e-13)
(2.63292 3.56451 1.97806)
(1.73751e-12 -1.76278e-12 -2.36192e-12)
(5.81054e-13 7.99708e-13 2.07242e-12)
(-1.38555e-12 -9.22224e-13 -1.79672e-14)
(1.02696e-05 -0.000171876 -0.000309069)
(-0.00111418 -0.000868475 -0.00327682)
(-0.232245 0.545811 -0.402204)
(1.20193e-12 1.66462e-13 3.06487e-13)
(-2.33261e-09 1.83604e-09 -9.00489e-09)
(-4.50608e-13 -1.93934e-12 2.51488e-13)
(-0.150139 -0.115304 -0.119952)
(-2.47402 39.3649 -0.28908)
(-1.51735e-13 -3.6819e-13 4.96329e-13)
(-0.236639 -0.00851317 -0.556751)
(-1.42524 36.1718 2.06945)
(-0.737488 -0.0256981 -0.645656)
(-7.25121e-13 3.25461e-14 -1.26078e-12)
(3.54744e-12 -4.92407e-12 -7.77676e-12)
(-1.4595 40.4524 -0.617216)
(-1.79989 36.7125 3.31605)
(-5.00218 22.9523 -1.11077)
(-0.0556024 -0.123064 -0.0926009)
(-24.1914 -3.53172 4.49945)
(8.39564e-13 -7.90092e-13 -1.44018e-12)
(-29.8768 1.59009 1.72679)
(1.89245 3.16254 1.99914)
(-33.7112 -1.86455 0.916625)
(6.91547e-13 -1.17948e-12 -1.36118e-12)
(7.41591e-14 -2.33337e-13 8.90314e-13)
(1.34594e-13 -4.75633e-13 -6.94783e-13)
(-2.30549e-12 -7.34994e-14 -1.2182e-13)
(2.86582e-13 -1.3272e-13 -5.59367e-13)
(-33.011 1.0545 3.33017)
(2.04566e-13 4.50764e-13 1.3928e-12)
(-2.42474e-06 6.14083e-06 -2.02755e-05)
(1.47201e-12 -1.72175e-12 -1.07196e-12)
(0.000115255 -1.12025e-05 -0.000350318)
(-6.17202e-13 -2.29637e-12 -1.23624e-12)
(-0.0231175 -0.0247127 -0.029205)
(-2.14195e-08 -2.97835e-08 -1.11115e-07)
(-0.401101 0.236026 0.108092)
(-33.1675 -1.18791 0.208844)
(-1.07724e-12 2.04568e-12 8.73419e-13)
(-0.228682 0.212577 -0.163058)
(-1.50099e-12 1.15364e-14 -1.67706e-13)
(0.940994 -28.4889 -0.695414)
(-34.1498 -1.19813 3.97645)
(7.60407 1.96028 8.45904)
(-0.00819087 -0.0132911 0.0121234)
(-34.2997 -1.87127 1.71367)
(-2.06153e-12 -7.03699e-13 -5.45761e-13)
(1.094e-12 8.80567e-13 -2.45486e-12)
(-0.00529156 -0.0257401 -0.0681948)
(-41.9178 0.468143 -1.43057)
(-1.09507e-13 -9.72336e-13 7.66177e-13)
(-4.75956e-13 6.46279e-13 8.98139e-13)
(4.10394e-06 4.00508e-06 -7.42865e-06)
(-1.14783e-12 -3.26119e-13 1.77716e-12)
(-35.0805 -0.283459 -1.32986)
(8.0446e-13 -8.63978e-14 -8.05256e-14)
(-1.0668e-12 -3.20652e-13 -8.53894e-13)
(-1.50743e-12 -1.11697e-12 -5.6562e-13)
(-2.63623e-12 -6.8609e-14 -1.11989e-12)
(3.16343 0.450414 -1.88192)
(-6.08087e-14 1.23001e-12 -2.01002e-13)
(-7.67089e-13 -6.28383e-13 6.5648e-13)
(-33.1157 0.499197 -2.45472)
(-35.2792 -1.27182 -1.68328)
(0.0751754 -0.131947 0.320511)
(-6.08615e-12 4.91533e-12 -2.46298e-10)
(-1.00355e-12 1.14184e-12 -1.43506e-12)
(4.75278e-13 1.24526e-12 -7.44066e-13)
(-0.00402253 0.0137738 -0.022741)
(-2.50035e-13 -1.03172e-12 -6.04049e-13)
(-6.61935e-13 -1.42816e-12 -1.67072e-13)
(-5.06498e-12 8.95219e-13 -1.31897e-11)
(-4.5184e-13 5.22993e-13 1.29495e-12)
(-1.17866e-12 -2.30015e-13 1.19088e-12)
(40.6746 -0.755746 -3.10208)
(41.0214 -3.47133 -4.4492)
(-1.63056e-13 -1.57192e-13 -4.04774e-13)
(7.91349e-11 -8.49442e-12 -1.27989e-09)
(39.0791 -1.64203 -3.16339)
(-0.0101878 0.297647 -0.290321)
(3.88487 3.33164 1.46448)
(0.00012827 -0.000276779 -0.000450751)
(8.59278e-13 2.40961e-13 5.64758e-13)
(1.79358e-05 -3.16631e-05 -0.000137002)
(0.0480367 -0.0373701 0.0553118)
(1.90223 0.698932 0.605954)
(-0.0303116 0.157184 -0.832209)
(32.8229 -2.21006 -1.41913)
(5.88121e-13 1.71144e-12 1.97547e-12)
(44.419 -0.859283 4.93628)
(-8.86559e-13 -1.39686e-12 1.29301e-12)
(1.60698e-12 -1.06195e-12 1.0224e-12)
(32.8017 -2.36526 -0.635466)
(37.7079 -2.44021 -3.95041)
(-8.47395 2.61443 11.1661)
(3.74729 1.48796 6.257)
(7.50543e-14 -3.38465e-13 1.56411e-13)
(3.45646e-11 -4.09864e-11 -2.05385e-10)
(2.65968e-13 -1.76402e-13 -2.29642e-12)
(6.18104e-13 6.0168e-13 -1.76426e-12)
(35.4351 -1.54939 -2.13951)
(6.64023 25.1798 -0.280014)
(37.4888 -1.08932 -4.01529)
(42.4647 0.933108 -7.1408)
(-1.88894 -0.219669 1.40968)
(3.65908 1.60027 1.04063)
(43.4262 -0.987963 -3.99634)
(-6.46909e-13 -1.59087e-12 1.12532e-12)
(-33.953 2.41376 -0.348276)
(0.0799161 -0.03738 -0.036227)
(0.0021098 -0.0181866 -0.0442609)
(-0.302639 -0.417914 0.0403039)
(5.83877 32.1069 9.36816)
(1.79447e-13 -1.89404e-12 1.65438e-12)
(0.0270468 0.00428836 0.0802274)
(-9.97437e-13 -1.98616e-13 4.89371e-14)
(-3.18725e-08 1.61858e-08 -1.60358e-07)
(0.0637143 0.0234892 -0.118763)
(-4.39317e-13 1.08482e-12 -9.52264e-14)
(-0.356843 0.648811 -0.569669)
(-7.198e-13 4.42529e-13 -4.18773e-13)
(3.13822e-13 -6.96733e-13 1.4357e-12)
(0.00119142 0.0136234 0.00816632)
(6.72173e-13 1.71407e-13 1.84713e-13)
(0.00355148 2.77673e-05 0.0094638)
(-1.0819e-12 2.46605e-13 2.70995e-12)
(-4.44798e-05 -0.000263376 -0.000131427)
(-2.03039e-12 7.44062e-12 -7.7249e-12)
(-0.00863865 -0.00152909 -0.000885065)
(-0.370333 0.211508 -0.256562)
(-0.0993395 0.20528 0.893719)
(-9.60348e-14 -2.24517e-12 3.76918e-13)
(0.231165 -0.0880508 0.54264)
(0.424092 -0.0676801 0.807321)
(-3.96477e-07 -5.6139e-08 -6.2824e-07)
(0.0600922 0.0619822 -0.0515356)
(-5.86465e-13 1.93729e-12 1.43885e-14)
(0.017529 -1.0628 -0.804371)
(-0.00822062 -0.0332272 -0.0111617)
(3.76724e-06 -1.15611e-05 -6.89444e-05)
(0.000414199 0.00374726 -0.0019563)
(0.0985545 -0.0113521 0.662064)
(0.0862813 -0.0366607 -0.381155)
(-1.16768e-12 6.92011e-13 7.436e-14)
(0.00453571 -0.0101168 -0.0163741)
(-2.8625e-12 2.09502e-12 -7.78706e-13)
(-1.56479e-13 -1.28248e-12 8.33029e-13)
(1.13719e-13 4.19951e-13 -3.91944e-13)
(0.0301527 0.00942119 0.0642141)
(0.789443 0.209803 -0.459956)
(-6.37305e-13 -4.11626e-13 1.11168e-12)
(-0.0341046 0.125834 0.249388)
(-0.117574 -0.272352 -0.321661)
(-0.0628175 -0.0196992 -0.123383)
(0.99 34.488 0.0512144)
(-1.20159e-13 1.46227e-13 -9.36272e-13)
(-0.00208197 -0.00157406 -0.00817267)
(5.84196e-08 -3.95977e-07 -7.17454e-07)
(3.64896e-13 1.44608e-13 -3.14745e-13)
(-9.39364e-13 -1.14321e-12 -6.53501e-13)
(3.8665 -0.753667 2.31469)
(0.0554586 0.00495065 0.180518)
(4.67427e-06 -0.0152371 0.129323)
(0.134293 0.195232 -0.228809)
(-2.89613e-14 -1.79323e-12 2.82946e-13)
(6.48031e-11 -2.42047e-11 -1.03341e-10)
(-0.0503534 -0.269555 -0.107731)
(-7.7248e-08 4.92913e-07 -5.21806e-06)
(-0.0411355 0.0050574 0.046725)
(0.0250888 -0.0943075 0.428373)
(-0.00843255 -0.018866 0.0124284)
(-5.18352e-13 -8.74169e-14 3.17528e-13)
(2.14193e-12 1.1236e-12 2.86746e-13)
(14.3285 33.0703 2.69814)
(6.78108 37.6602 9.70757)
(-0.000147086 1.56926e-05 -0.00034005)
(-0.00286325 -0.00173202 -0.0274143)
(1.82294e-12 4.65186e-13 1.07762e-13)
(9.04293e-10 9.14073e-10 -2.0567e-09)
(-9.86404e-13 -9.15212e-13 8.25441e-13)
(5.94921e-07 -1.02243e-06 -2.59269e-06)
(-0.404164 -0.419612 0.337143)
(-0.100583 0.0510542 0.167823)
(0.026376 0.0022505 -0.0575103)
(36.854 4.27302 -0.622153)
(8.12049e-13 -1.58827e-13 -7.12285e-13)
(1.85668 0.367041 2.03864)
(2.38964e-13 -1.44571e-13 4.15369e-13)
(-0.0586147 0.0684954 0.0668432)
(0.000168736 0.000320401 -0.000232794)
(0.586392 2.17326 1.31934)
(2.19111e-12 -1.57299e-13 -1.41363e-14)
(-0.0377287 0.039966 0.0384133)
(-0.078412 0.0798138 0.0345995)
(-1.42121e-13 -3.76067e-13 1.34789e-13)
(-0.208739 0.319294 -0.162808)
(1.6457e-12 -1.69508e-12 -1.24417e-11)
(0.00326649 -0.00162642 -0.0277979)
(-0.00367496 0.00432603 -0.0183798)
(8.7603e-13 5.07947e-13 1.38878e-12)
(-1.22615e-11 6.82154e-12 -4.04396e-11)
(-0.00215742 0.00177761 -0.0127682)
(-1.03792e-12 -1.07306e-12 -9.02409e-14)
(0.00187832 0.00106249 -0.000912422)
(-1.75122e-08 -5.22099e-08 -1.37797e-07)
(-9.25422e-13 -2.65829e-13 -1.13968e-12)
(18.3667 17.1329 4.93728)
(-0.0936878 0.0334859 -0.682915)
(0.0120894 -0.00666511 -0.0320108)
(0.245487 39.9102 -3.74096)
(-2.45146e-12 -3.23828e-13 1.60111e-12)
(-0.317313 -0.214269 -0.610931)
(0.215555 0.239455 -0.298637)
(9.42791e-13 5.92804e-13 6.09505e-13)
(-1.18052e-09 1.1047e-08 -2.92891e-08)
(1.38645e-13 -1.09668e-12 -1.32971e-12)
(-0.0129619 -0.0186445 -0.126476)
(-0.0396208 -0.0168748 -0.0591319)
(0.0457075 0.0242545 -0.0534905)
(1.83842e-10 -3.41179e-10 -3.44312e-09)
(1.27747e-12 5.74636e-13 2.2057e-12)
(0.0476462 -0.00930123 -0.23949)
(0.0311429 -0.051872 -0.0824908)
(-0.164665 -0.24481 -0.489224)
(-3.44151e-08 3.56468e-08 -8.59105e-08)
(0.385734 -0.323248 -0.542749)
(2.78014 -1.40998 -5.39249)
(-0.0346882 -0.28893 -0.624596)
(-0.460692 0.768385 -0.564367)
(-5.07111e-07 4.10225e-07 -4.75333e-07)
(-8.68809 3.11439 -6.39467)
(-0.422031 0.332429 -0.766446)
(-0.0995818 0.0927885 -0.186608)
(6.25355e-13 -6.65831e-13 -4.99323e-13)
(1.30421e-10 4.6252e-13 -2.07474e-10)
(1.0596 1.05452 2.72092)
(-3.28787e-11 -7.84452e-11 -1.74079e-10)
(-0.485124 -0.414683 -0.0551006)
(-1.53967e-05 1.93223e-06 -1.22911e-05)
(8.55795e-13 -1.41869e-12 -1.82459e-13)
(-2.0031e-13 -2.23661e-12 -2.43515e-13)
(0.25508 0.541239 0.181746)
(-6.43158e-13 -2.02664e-12 -2.16662e-12)
(1.64125e-12 -1.44537e-12 1.79397e-12)
(0.509653 1.7438 1.82857)