/*--------------------------------*- C++ -*----------------------------------*\
| =========                 |                                                 |
| \\      /  F ield         | OpenFOAM: The Open Source CFD Toolbox           |
|  \\    /   O peration     | Version:  2312                                  |
|   \\  /    A nd           | Website:  www.openfoam.com                      |
|    \\/     M anipulation  |                                                 |
\*---------------------------------------------------------------------------*/
FoamFile
{
    version     2.0;
    format      ascii;
    arch        "LSB;label=32;scalar=64";
    class       volScalarField;
    location    "0.1";
    object      alphat;
}
// * * * * * * * * * * * * * * * * * * * * * * * * * * * * * * * * * * * * * //

dimensions      [1 -1 -1 0 0 0 0];

internalField   nonuniform List<scalar> 
32842
(
0.000876602
0.000873727
0.000876603
0.000876602
0.000927184
0.000876602
21.5838
18.2407
0.000876602
0.000876602
2.2933
2.04755
0.000876602
0.000876602
0.000876414
0.000876574
0.000876602
0.000876602
0.000876602
0.000925661
0.000933284
0.000929885
0.000924031
0.000876603
0.000922375
0.000876602
0.000876602
0.000908302
0.349013
0.000876602
0.0967657
0.662538
26.1704
0.000876602
14.8575
21.4708
0.000923128
0.000876603
0.000876603
0.000876602
0.000876603
0.000932636
0.000876602
0.000876602
0.474241
0.000876602
0.0145397
0.000876602
0.000930372
0.024528
17.3239
0.000876602
0.822465
0.0168471
0.000876603
0.000854972
0.000876602
0.0167223
0.000876603
0.000876602
16.2374
0.790884
0.880655
0.000932896
0.000876602
0.000830558
0.000876603
0.969016
0.612294
0.000875221
0.000906426
0.00226656
0.696305
0.000876602
0.000876602
0.000876603
0.21289
0.000876602
0.694285
0.00584825
0.000926599
0.000876602
0.000876602
0.771213
1.07816
0.000876602
0.000876602
0.000873555
0.194749
0.000876602
0.000927345
0.000930302
0.000855853
0.000876592
0.000876602
0.000876602
0.675255
0.000876514
1.00008
0.000876602
0.000876602
0.000937827
0.000871576
0.10904
0.69065
0.633789
0.204382
0.000873202
0.740844
0.000874596
0.000876602
0.000876602
0.00117761
0.000876602
0.000871973
0.000931277
0.756124
0.198056
0.000874058
0.000876602
0.000876602
0.000876602
0.0169917
0.000876603
0.00087286
0.687102
0.555229
0.000876602
0.000842564
0.000876603
0.000876602
0.00086868
0.000939596
0.69607
0.000934326
0.000876517
0.000866507
0.0830438
0.000876602
0.000876602
0.741194
0.000876602
0.735855
0.000867058
0.000876602
0.000876602
25.754
0.000876602
0.000876602
0.000876602
0.000872221
0.243849
0.000916897
0.00189226
0.000876355
0.000876602
0.000876602
0.000876602
0.000876602
0.000876602
0.000876602
0.000876602
0.00092277
0.000876602
0.000875958
0.000876602
0.000876602
0.000876602
0.000876603
1.46669
0.000867572
0.000931504
0.000862538
0.000876602
0.000934246
0.00977472
0.000876602
0.000872785
0.000876602
0.000876602
0.000899317
0.000876602
0.000876602
0.000876602
0.760712
0.000876602
0.70435
0.000876602
0.000876602
0.000876602
0.000876602
0.166456
0.600631
0.000876602
0.623644
0.000876602
0.000876602
0.000876602
0.673575
0.000876602
0.000876602
0.000876603
0.145497
0.00781955
0.000673118
0.000952212
0.000876602
0.000933239
0.629874
0.000876602
0.000876602
0.000876528
0.000903001
0.000904833
0.000876602
0.000876602
0.000876602
0.000876603
0.000876602
0.000876525
0.17514
0.000876602
0.000876602
0.000876602
0.000937545
0.529946
0.000876603
0.649776
0.000876602
0.000776173
0.000876602
0.000876602
0.000876603
0.000876602
0.000882491
0.000926371
0.000927987
0.00086841
0.000876602
0.788934
0.00638936
0.000876603
0.000876602
0.0125922
0.000876602
0.000876603
0.834448
0.000876602
0.000876602
0.000876603
0.000876602
0.000876602
0.000876389
0.674175
0.000876603
0.000876602
0.000876602
0.000859403
0.000876602
0.000876602
0.000876602
0.000876602
0.000876602
0.000876603
0.516005
0.000876602
0.000876602
0.000876602
0.000876603
0.000876603
0.000876602
0.677099
0.000876602
0.523574
0.000876602
0.00575675
0.000876602
0.000930803
0.000876602
0.000876602
0.000876602
0.000849743
0.000850105
0.000876602
0.000876602
0.000873516
0.000854181
0.000876602
0.000933155
0.000876602
31.8144
0.000876603
0.609479
0.000870972
0.189596
0.000873617
0.604951
0.000876602
0.000876603
0.000921829
0.228806
0.000876603
0.000876602
0.000876603
0.000876602
0.000876602
0.000876602
0.000876602
0.000876602
0.797388
0.000876603
0.000876602
0.783577
0.000876602
0.000876602
0.000876602
0.000876602
0.00294914
0.000876602
0.000876602
0.000876602
0.00111559
0.000876602
0.000894201
0.000876603
0.000876602
0.000876602
0.000876603
0.000876602
0.000876602
0.000876602
0.708079
0.000876602
0.000876602
0.000876602
0.000876602
1.31756
0.614356
0.000876602
0.000876602
0.000876602
0.000876602
0.000868784
0.000876602
0.794494
0.000876602
0.000876602
0.643491
0.913731
0.730136
0.0008766
0.000848689
0.000876602
0.672965
0.000876602
0.000876603
0.000923251
0.000876602
0.000876602
0.000876603
0.000876602
0.000876602
0.000876602
0.041189
0.000876602
0.000876582
0.000876602
0.000876602
0.000868281
0.000920143
0.000876602
0.685257
0.000876602
0.000927464
0.000876602
0.744226
0.000927775
0.000876602
0.000870302
0.00092331
0.000876602
0.807223
0.688024
0.000876602
0.000876602
0.000876603
0.000876602
0.000876602
0.000876602
0.000876602
0.000876602
0.000876602
0.000876602
0.000876602
0.000876601
0.000876602
0.000876602
0.000876602
0.000876602
0.000876026
0.0190603
0.000876602
0.000876602
0.000874859
0.000718935
0.000876546
0.000876602
0.000936272
0.000876602
0.000923069
0.55243
0.000876602
0.000876602
0.000876602
0.000876602
0.000876602
0.000876602
0.000876602
0.0008766
49.5372
0.000876598
0.69685
0.000876602
0.00093384
0.113165
0.000876602
0.000876602
0.000876602
0.000876311
0.000876603
0.000876603
0.000876602
0.000876602
0.706448
0.000926175
1.34556
0.000876602
123.795
0.00102937
0.748395
0.000932847
0.00966549
0.000924202
0.762259
0.000876603
0.000876602
0.000899518
0.000876603
0.00091871
0.00087004
0.000876603
0.000876602
0.000876602
0.000888402
0.00091571
0.000876602
0.000876602
0.00092893
0.000876563
0.000876603
0.000876592
0.00093631
0.000876602
0.000876602
0.000876602
0.000876485
0.000876602
0.767734
0.000876602
0.000872495
0.000876602
0.000937192
0.000927767
0.000876602
0.000876602
0.771736
0.717847
0.000876602
0.000876603
0.000876602
0.000876602
0.000926809
0.000876602
0.00925579
0.769926
0.000876602
0.000876603
0.980758
0.00087393
0.000876602
0.000924453
0.000871157
0.000900903
0.00087617
0.731265
0.000933773
0.587027
0.773877
0.000867515
0.000876602
0.000930417
0.000869234
0.000876345
0.724655
0.000928025
0.996126
0.000916109
0.000876602
0.000859691
0.000927621
0.000876602
0.698807
0.000876602
0.686415
0.000876602
0.000876603
0.000926609
0.000931797
0.000854042
17.3195
0.174386
0.00147304
0.000861894
0.000863743
0.000853052
0.747241
0.000876602
0.000876602
0.000876602
0.770258
0.129229
0.897065
0.00148053
0.000876591
0.000876602
0.000916832
0.1537
0.000876603
4.94644
0.00036007
0.000876595
0.00217103
0.000874974
0.000864423
0.000876603
0.000876602
0.000876598
0.735083
0.0220921
0.000876602
0.000937658
0.000876603
0.211181
0.610064
0.000876602
0.000876602
0.000876602
0.000876602
0.00826549
0.00168024
0.000876602
0.000876602
0.000876531
0.677861
0.0139122
0.963681
0.000876602
0.000876602
0.000876602
0.0103595
0.781139
0.587809
0.163156
0.600906
0.000876602
0.000853556
0.602294
0.000876602
0.0256116
0.000876602
0.000927242
0.000876602
0.000867862
0.000928284
0.000923385
0.000876602
0.000876602
0.000876602
0.000876602
0.779184
0.000934584
0.000876603
0.000876602
0.00800425
0.000876602
0.000943454
0.169973
0.921009
0.000876539
0.000876602
0.0249049
0.155819
21.0823
0.000876602
0.00490428
1.10846
0.00103731
0.00087158
0.0145772
0.000876603
0.000876602
0.000876603
0.000876602
0.000876602
0.0321348
0.000928888
0.000876602
0.000876602
0.000876602
0.000876602
0.000876602
0.000876602
0.000876595
0.0505228
0.95382
0.000876601
0.000876602
3.4708e-05
0.042524
0.0908265
0.000876602
0.258667
0.000876602
0.000876602
0.000876603
0.0242342
0.69732
0.000876602
0.000925226
0.000876602
0.30654
0.000876602
0.000876602
0.000876603
0.000876603
0.36861
0.000876602
0.000876602
0.00816955
0.0181882
0.000876592
0.000876602
0.000876602
0.613917
1.08591
0.000876602
0.705972
0.000925622
0.000876602
0.000876602
0.00284318
0.000810392
0.000876602
0.98469
0.0011143
0.000876588
0.000866849
0.000876602
0.000876602
0.000930747
0.000927855
0.000875965
0.000876333
0.0176561
0.000876602
0.000847641
0.000876602
0.000876602
0.205116
0.0009084
0.00117514
0.00148811
0.000876602
0.000876603
0.000919761
0.000924392
0.00583679
0.0345383
0.00110979
0.00346999
0.000875905
0.000871841
0.00083701
0.000876602
0.0344645
0.000876602
0.000876603
0.859574
0.0310383
0.000876585
0.000876603
0.000876602
0.000876602
0.000876603
0.000876602
0.000876602
0.000876602
0.000876602
0.800147
0.000876602
0.000876603
0.000876602
1.25539
0.000876602
0.000876602
0.000876602
0.605785
0.000876602
0.000876602
0.000876603
0.000876603
0.000876602
0.000876603
0.000876019
0.000876602
0.000876602
0.000876602
0.000876602
0.000898019
0.000876551
0.000930125
0.000897677
0.000936107
0.000876602
0.000928741
0.000928978
0.584115
0.000876602
0.000876602
0.000917386
0.037625
0.000876602
0.536696
0.000923862
0.000876602
0.000876602
0.000870203
0.000876602
0.000876603
0.817799
0.000876602
0.000876602
0.000876602
0.000933021
0.682589
0.000876602
0.000924869
0.000876602
0.000919216
0.00492471
0.000747724
0.000920854
0.000876602
0.911691
0.000876602
0.000876602
0.000876602
0.000876602
0.000876603
0.000876603
0.24992
0.000876602
0.000874621
0.823008
0.000925
0.000876602
0.000875072
0.000876602
0.909805
0.000938003
0.74292
0.0008766
0.599559
0.542455
0.000928266
0.000876603
0.000916715
0.000876602
0.000937141
0.000876602
0.000876602
0.000931659
4.68324
0.670845
0.000876602
0.000820504
0.000876566
0.566756
0.000876597
0.000876602
0.000876602
0.000876602
0.000876603
0.000876603
0.000876602
0.000876602
0.000876602
0.000876602
0.000876602
0.000876602
0.674791
0.000876565
0.188143
0.000876602
0.000876602
0.000927763
0.001989
0.000876602
0.000876602
0.000932189
0.000876602
0.000873903
0.000876603
0.000938151
0.904562
0.000876602
0.000876602
0.000876602
0.000876574
0.000876602
0.000875574
0.000876602
0.000876602
0.532891
0.000876602
0.0235981
0.000876602
0.000876602
0.00087635
0.00087607
0.000920652
0.000876602
0.000876602
0.000876602
0.000876602
0.207642
0.000876602
0.000876603
0.732291
0.000876553
0.683921
0.000876602
0.000832393
0.000876602
0.000876602
0.926639
0.000847227
0.000876603
0.000876602
0.000857002
0.000916146
0.000876602
0.000876602
0.000876602
0.000876602
0.000876602
0.673841
0.219104
0.698135
0.000876602
0.748818
0.000876602
0.000876603
0.000876603
0.000874429
0.000898404
0.000876602
0.000876602
0.000876602
0.000876602
0.000874916
0.000876602
0.000876602
0.000876603
0.000876574
0.00103476
0.000926062
0.000876602
0.17573
0.13828
0.000876603
0.000872224
0.141629
0.000876602
0.000876602
0.000876602
0.527262
0.000876602
0.000876602
0.654564
0.000930094
0.000876602
0.000876602
0.000876602
0.000876602
0.000898077
0.17625
0.000876602
0.000876603
0.579737
0.000876603
0.000876602
0.218242
0.000876602
0.000876602
0.000876603
0.000876602
0.667695
0.000876602
0.000876603
0.000876602
0.000876603
0.000921796
0.000876602
0.579047
0.000927506
0.000831297
0.000876602
0.000876602
0.000876602
0.000876602
0.000876602
0.000876602
0.178327
0.146912
0.000914908
0.00100095
0.000876602
0.00092071
0.000876602
0.000876602
0.000876603
0.000876602
0.000876602
0.000876602
0.000876602
0.000876602
0.000876602
0.000876602
0.0323826
0.000876602
0.953553
0.000876602
0.79486
0.771639
0.000876602
0.000922864
0.778747
0.0171948
0.0013101
0.000877761
0.000876602
0.000876603
0.000876602
0.000876603
0.0374626
0.000876603
0.150704
0.00857882
0.00196413
0.00288395
0.000898641
0.000847661
0.000876602
0.000864125
22.1684
0.000876602
0.00036806
0.000865669
0.0008766
0.000876602
0.000876602
0.000824951
0.000876602
0.719273
0.000929249
0.622641
0.507446
0.81117
0.00092372
0.000876602
0.000876602
0.000876602
0.000876602
0.000876602
0.000876602
0.000876602
0.000876602
0.0781664
0.000936544
0.000876602
0.00564306
0.000876602
0.000876602
0.000875859
0.000876602
0.0311574
0.219237
0.000876602
0.000876602
0.000876602
0.709106
0.125711
0.000876602
0.00086405
0.751099
0.0361934
0.000876592
0.000876576
0.0153502
0.804011
0.000876602
0.000876603
0.000876603
0.000876526
0.000862966
0.0008763
0.531737
0.000876603
0.000876602
0.000876602
0.000876602
0.000876213
0.00163947
0.000876602
0.000876602
0.18133
0.156887
0.645883
0.000876602
0.000863307
0.000810768
0.000876602
0.000876603
0.000876602
0.933129
0.000861475
0.000876602
0.000910967
0.000874284
0.000876602
0.000876058
0.00086367
0.0008766
0.000876602
0.000876603
0.000876602
0.000822372
0.000876569
0.000876242
0.000867052
0.00174943
0.000902263
0.000894552
0.000857343
0.000876602
0.000854702
0.509021
0.000876602
0.887964
0.410347
0.000864825
0.000864312
0.000868214
0.00086234
0.000876602
0.0999832
0.653439
0.000872895
0.000876602
0.000876602
0.000876602
0.000876602
0.000876602
0.000876536
0.000876601
0.198962
0.000876602
0.000876602
0.00100153
0.000876602
0.000876584
0.0030265
0.133469
0.000874628
0.000873054
0.000876602
0.200426
0.000843077
0.654943
0.00087654
0.000876602
0.000875866
0.024511
0.000943771
0.000923247
0.000872409
0.0149481
0.000876602
0.00222743
0.000872181
0.000876602
0.181916
0.000944516
0.000876577
0.00123369
0.000876602
0.000876602
0.151535
0.00100537
0.000856932
0.000876602
0.000876602
0.000876602
0.000876602
0.000872155
0.000870641
0.00086603
0.000876602
0.000876602
0.000860611
0.000876602
0.000876602
0.000691437
0.000876602
0.000860784
0.00085622
0.000876602
0.000876602
0.000857942
0.000876625
0.000861385
0.00474022
0.000876602
0.000848149
0.181821
0.000950886
0.000771666
0.000870741
0.848073
0.000876602
0.000876602
0.000875077
0.134271
0.000922579
0.000876602
0.0110744
0.641034
0.000871942
0.0304976
0.000876602
0.0680564
0.289352
0.00086217
0.000876602
0.000876602
0.000859688
0.000876602
0.000876603
0.199973
0.000872358
0.000844187
0.000862054
0.00092967
0.000894904
0.000876602
0.000876602
0.000861549
0.332699
0.000876603
0.000873639
0.000876602
0.223553
0.000876593
0.248247
0.0250637
0.000871848
0.213245
0.267896
0.0122341
0.000860202
0.000861001
0.127134
0.000873903
0.772986
0.000858818
0.000865301
0.000914085
0.000876602
0.000859038
0.000876598
0.000872992
0.000922542
0.000866934
0.669713
0.000864486
0.00092445
0.816116
0.308419
0.000876602
0.000862245
0.000929747
0.82235
0.227397
0.000876597
0.000868677
0.255159
0.000892471
0.000930556
0.000876602
0.814051
0.000876602
0.000916326
2.19991
0.000923999
0.000876603
0.653144
0.0235821
0.000876602
0.000837553
0.000876602
0.000876602
0.000876602
0.000876602
0.189282
0.000921086
0.000876602
0.143698
0.514676
0.00087658
0.000874997
0.0320961
0.000876602
0.000876602
0.000875935
0.000865805
0.000862357
0.000876602
0.000847745
0.000876602
69.9174
0.22846
0.00087019
0.671858
0.360076
0.00116228
0.00095599
0.000873487
0.351651
0.000855629
0.0311377
0.000833045
0.000838659
0.000933543
0.000863562
0.000876602
0.000845279
0.000876546
0.645833
0.000876603
0.00086622
0.000876602
0.000931333
0.000895438
0.129477
0.134147
0.000930617
0.000876602
0.000873018
0.611433
0.000876602
0.000876602
0.335839
0.0193332
0.000876603
0.866962
0.000876591
0.000864612
0.00086576
0.871947
0.000876289
0.000876602
0.000864648
0.0134842
0.000926595
0.000876005
0.00092135
0.000876602
0.000876513
0.118555
0.000876602
0.694541
0.619378
0.000876187
0.00220622
0.000876602
0.147607
0.0128208
0.000876602
0.00094452
0.0101526
0.000876603
0.000876602
0.000876527
0.183765
0.000876602
0.000871254
0.000876603
0.000938165
0.00087139
0.000872923
0.000874772
0.000876602
0.000876602
0.000876602
0.000876602
0.000876602
0.00087643
0.000876602
0.000876602
0.000868907
0.000875072
0.000876602
0.000682189
0.000869679
0.000876602
0.000876602
0.000873035
0.000876602
0.000934216
0.0008777
0.000876602
0.000875886
0.000872913
0.000870415
0.043031
0.0282226
0.000934701
0.562366
0.00084974
0.000876602
0.000876602
0.000850863
0.000864294
0.000928277
0.874593
0.000875909
0.000876602
0.0221277
0.000929262
0.00409043
0.000920872
0.00094331
0.000914377
0.000876602
0.000733137
0.000876602
0.000876603
0.000923524
0.00086441
0.214914
0.515268
0.000873246
0.000924216
0.000920219
0.000958942
0.000876602
0.000353945
0.000874239
0.000922232
0.00248181
0.000876602
0.00269727
0.000876602
0.000867666
0.000876603
0.000901641
0.000876602
0.000917229
0.000876602
0.000876602
0.000930975
0.000865671
0.212203
0.000870775
0.000876602
0.000876602
0.000859509
0.000876602
0.000876602
0.0193369
0.000876602
0.000867832
0.000876603
0.000876602
0.000876594
0.0008766
0.000876602
0.000876602
0.000874744
0.000876602
0.000886164
0.281088
0.000874728
0.000876602
0.00087658
0.000876602
0.000876602
0.000876602
0.000860906
0.000876602
0.000876602
0.000876602
0.000927988
0.533966
0.000876602
0.000876603
0.000876602
0.000261373
0.000876603
0.000876601
0.000876599
0.000876602
0.000876602
0.79551
0.000876602
0.000876602
0.000876602
0.00320875
0.000876588
0.000876553
0.000876602
0.786257
0.000872307
0.000872374
0.000866138
0.000876602
0.00087046
0.000876603
0.000865176
0.000876602
0.0008766
0.000876486
0.00129222
0.000912022
0.000876531
0.000879942
0.000855296
0.000858369
0.000876602
0.000843402
0.000867405
0.000920394
0.000876556
0.000844032
0.00085553
0.000876602
0.000876603
0.000876425
0.000876602
0.000855177
0.000872874
0.000876602
0.000876602
0.00087658
0.000876577
0.000873236
0.0573156
0.000876602
0.000914319
0.000857412
0.000876603
0.000871725
0.268619
0.000870596
0.000870479
0.000876603
0.000876502
0.639432
0.000876602
0.000867512
0.000876602
0.000872313
0.000876602
0.843213
0.00092231
0.000876602
0.000876602
0.000876602
0.000876602
0.000870523
0.000876603
0.000857504
0.000876602
0.000864886
0.000863938
0.000927954
0.000876602
0.242113
0.875778
0.000876602
0.0723171
0.0756877
0.000923763
0.000876041
0.000876602
0.752182
0.000863468
0.0477745
0.0922005
0.000876602
0.000876602
0.00094954
0.000876602
0.000863764
0.000876602
0.000876602
0.000931673
0.00107014
0.000876602
0.000876602
0.00037658
0.000876602
0.000876602
0.000876602
0.000876602
0.372587
0.801007
0.000908671
0.000876602
0.000876602
0.000876602
0.000843644
0.000866372
0.0535152
0.002803
0.000930212
0.000876602
0.000876602
0.000876602
0.000876602
0.000721682
0.0006797
0.000876602
0.000876602
0.000876602
0.000876602
0.666239
0.000876602
0.746745
0.000876602
0.781732
0.000932271
0.000864988
0.000876602
0.000876602
0.000876602
0.000876603
0.000876603
0.000876603
0.000876602
0.641116
0.000876602
0.000866958
0.218808
0.000867546
0.000876602
0.000876602
0.000876603
0.000876602
0.000871777
0.000846638
0.000876602
0.000876602
0.000876602
0.821891
0.000865007
0.000964141
0.000820001
0.000858715
0.708783
0.000922269
0.0215668
0.000876489
0.626748
0.000876603
0.000876602
0.000932383
0.209014
0.0981419
0.000945647
0.000875769
0.706111
0.0102186
0.000876602
0.000876602
0.000870804
0.000876603
0.000876602
0.000876602
0.000919393
0.035647
0.000876603
0.000867851
0.0103541
0.000876602
0.000876602
0.000876602
0.000876602
0.000876602
0.000876602
0.000876603
0.000932769
0.00086492
0.000873116
0.000866251
0.0156277
0.000873853
0.000865146
0.755251
0.00087657
0.000929501
0.000865531
0.000868518
0.000929752
0.000935854
0.00086676
0.931022
0.000874048
0.000847715
0.000876602
0.000876602
0.000866043
0.000876568
0.000876586
0.000876602
0.000876602
0.000922167
0.000876603
0.0008764
0.000876559
0.000876602
0.000876575
0.000876447
0.00087658
0.000875242
0.850938
0.000876602
0.000866329
0.000876602
0.000876317
0.000876603
0.000876602
0.173779
0.000874861
0.000876097
0.562407
0.000869326
0.000876602
0.000876602
0.000867448
0.00100377
0.0602424
0.000868419
0.000876602
0.000850761
0.000876602
0.000876601
0.000876602
0.0119398
0.000876602
0.000876602
0.000876602
0.000712472
0.000919876
0.000876602
0.000930658
0.000876602
0.865517
0.000921994
0.000876599
0.000866636
0.000876603
0.000876602
0.000876594
0.000876602
0.000876602
0.000876602
0.000935691
0.000876602
0.000876602
0.000870851
0.865347
0.000859322
0.000876603
0.000871385
0.00094329
0.00087211
0.0115883
0.618485
0.00480345
0.000871463
0.000872563
0.000934636
0.000876602
0.000870088
0.000876603
0.0063635
0.544615
0.000932722
0.686777
0.999783
0.000876602
0.000876603
1.09455
0.000876602
0.000876602
0.0990333
0.000922573
0.000876602
0.000876602
0.000873434
0.000876602
0.000876602
0.000876602
0.000876602
0.000876602
0.863719
0.000876602
0.000876602
0.000876602
0.000876602
0.000876602
0.315852
0.284479
0.000935167
0.000876602
0.000925606
0.000949252
0.000876602
0.000876602
0.000876602
0.00108403
0.681306
0.00873117
0.000876602
0.000580235
0.000876602
0.000876602
0.30232
0.572263
0.0008766
0.000875194
0.000876602
0.000876602
0.000876602
0.000876602
0.000876602
0.000876601
0.000868053
0.0319136
0.969443
0.000876602
0.000876602
0.000467471
0.000876602
0.000870933
0.000876602
0.000923597
0.000876602
0.000876602
0.000876602
0.00082512
0.155024
0.000874758
0.000874361
0.000876602
0.000876602
0.000874903
0.000876602
1.13138
0.000919982
0.000871051
0.605028
0.000876602
0.000860608
0.000876602
0.000876602
0.000876602
0.000876602
0.000876602
0.000876602
0.813746
0.000876602
0.00102322
0.000876602
0.000873256
0.00087654
7.17908
0.000876602
0.000876602
0.1302
0.79921
0.000876602
0.000876602
0.000876602
0.000876602
0.000880465
0.000876602
0.797922
0.00087559
0.000876602
0.000873185
0.000860123
0.000876423
0.000872563
0.000876602
0.000870093
0.000876602
0.000876602
0.000852136
0.000876467
0.000876602
0.000913578
0.000876602
0.000876602
0.000876602
0.000876603
0.000873158
0.000979264
0.000876602
0.000872872
0.000862052
0.000872836
0.0889155
0.000876603
0.000876602
0.0267038
0.000876602
0.000876594
0.00948624
0.000876602
0.0383011
0.030412
0.00382483
0.75076
0.000876602
0.000876599
0.000876602
0.000876602
0.000876597
0.668625
0.000876602
0.640422
0.000876602
0.00069341
0.0010476
0.000876602
0.00345892
0.000876602
0.000876593
0.000876173
0.0188532
0.93459
0.000876602
0.197445
0.000876399
0.000876602
0.000876602
0.000876205
0.000876576
0.000876602
0.000871195
0.68949
0.000872604
0.000876602
0.000873619
0.000876602
0.00085844
0.000876602
0.000867546
0.000876602
0.000876602
0.000876135
0.00092146
0.000876602
0.000855062
0.000842614
0.00087654
0.000876423
0.000876602
0.000868205
0.000876513
0.000876602
0.000876602
0.0103008
0.000876603
0.000876602
0.000876603
0.000866942
0.000903293
0.00519872
0.000887211
0.000865228
0.00018801
0.000876602
0.000876294
0.000874554
0.000859062
0.000876602
0.000876602
0.000865693
0.000902313
0.0553116
0.000876602
0.000876602
0.724068
0.664997
0.000849181
0.000876602
0.000876602
0.00580203
0.0215224
0.000967689
0.000866773
0.0284189
0.000876602
0.000876095
0.000850524
0.000876602
0.000876602
0.000925444
0.000861855
0.00086949
0.0220896
0.744594
0.000910977
0.000876602
0.0482886
0.000866569
0.000876602
0.000876602
0.00087709
0.000872426
0.000876602
0.000876602
0.000876602
0.000871762
0.000872312
0.000871592
0.144291
0.000876602
0.000876602
0.000876602
0.000876601
0.00091341
0.00258473
0.000876602
0.000876603
0.000876602
0.000636234
0.000850926
0.000876602
0.000876506
0.000876133
0.000876602
0.000869208
0.000876602
0.000876602
0.000866857
0.000872099
0.0208587
0.000876602
0.000861572
0.000876602
0.000863889
0.000864981
0.000871072
0.000876602
0.000872374
0.00086379
0.000876602
0.000876602
0.000876602
0.000876602
0.000873072
0.000870282
0.000864122
0.000885205
0.000867574
0.000815869
0.000925627
0.000608759
0.000927006
0.000942191
0.000876602
0.000876602
0.000926391
0.000876602
0.000918435
0.000876602
0.000875648
0.000876562
0.000922174
0.000876602
0.000869068
0.000938428
0.000876602
0.000876602
0.000876588
0.000876602
0.000876563
0.000876602
0.521266
0.000876602
0.000876602
0.000863324
0.000876602
0.000854959
0.000858283
0.698617
0.00085599
0.687019
0.000852665
0.7596
0.000876602
0.000876602
0.000876602
0.609047
0.000876602
0.000601082
0.000876602
0.000875195
0.000876602
0.000876602
0.000876602
0.000876602
0.000876602
0.000875878
0.000876602
0.803411
0.000876602
0.000876602
0.000853709
0.000872766
0.000876602
1.37131e-05
0.580262
0.000876602
0.000876602
0.000876602
0.993737
0.000667449
0.000864198
0.000857909
0.000869017
0.000876602
0.000876602
0.000876602
0.00087621
0.000876602
0.000876602
0.000920647
0.000876602
0.000876602
0.000876602
0.000873991
0.000876602
0.000876602
0.000876594
0.000876603
0.000866932
0.000957718
0.000864289
0.0011673
0.033131
0.000876602
0.000876602
0.000891514
0.000876335
0.000876602
0.000855963
0.000928736
0.000876602
0.000876602
0.000936734
0.225742
0.091668
0.000876602
0.000876602
0.000925433
0.0010529
0.000876602
0.000876602
0.000876602
0.000943275
0.0008581
0.000869529
0.000949217
0.000876602
0.000876603
0.000876602
0.000876602
0.000876602
0.000876602
0.000876602
0.000876602
0.000876602
0.000876602
0.000876602
0.000876602
0.000876602
0.000864292
0.000876602
0.00411724
0.000863618
0.000597753
0.00086305
0.696178
0.752884
0.00086994
0.000865948
0.000876602
0.000876055
0.000876587
0.178522
0.352367
0.59514
0.000869834
0.000759413
0.00564217
0.000864576
0.000857947
0.000923963
0.000871348
0.000871052
0.000980313
0.00116758
0.000863504
0.000876602
0.000876602
0.000876238
0.000876338
0.641333
0.000865521
0.000977441
0.000865436
0.000869485
0.000876544
0.000876602
0.000876602
0.000868072
0.000874904
0.000876178
0.000876602
1.00243
0.000872848
0.000876602
0.000876602
0.000876459
0.000876601
0.000876602
0.000876602
0.703538
0.000876603
0.000876602
0.000876602
0.000860722
0.000873798
0.000870613
0.000870115
0.000876602
0.000866537
0.0008766
0.000876541
0.000876602
0.000867757
0.0614394
0.227356
0.000876594
0.000873751
0.000876602
0.000876602
0.00086385
1.19551
0.00577523
0.0012545
0.915079
0.000876602
0.000849356
0.000876602
0.000876602
0.000876602
0.000874197
0.000876602
0.000883
0.000876602
0.246953
0.000863598
0.000876594
0.000876602
0.000911671
0.000873279
0.813374
0.000876602
0.000990986
0.000876602
0.000875591
0.000862078
0.000876602
0.000876602
0.000775774
0.000876602
0.000876602
0.000876602
0.000981876
0.000849393
0.000876602
0.00170024
0.000876602
0.000876602
0.000876602
0.000876603
0.000876602
0.000876602
0.000876602
0.000876602
0.000876602
0.000876603
0.00104852
0.000876603
0.000873443
0.000875975
0.000940121
0.000931846
0.209394
0.000842719
0.000876602
0.000876602
0.000876602
0.00399123
0.000853194
0.000876602
0.000876603
0.000809342
0.000856349
0.000867566
0.134849
0.000867543
0.000876602
0.599418
0.622993
0.00087069
0.000876602
0.000876591
0.000874328
0.823905
0.000876581
0.000849975
0.000876602
0.000876602
0.0543426
0.00881106
0.000872931
0.000858284
0.000849356
0.000876528
0.000875144
0.000929705
0.000876602
0.000404535
0.000921466
0.000918467
0.000933222
0.000876602
0.000876602
0.018784
0.000990831
0.000876603
0.000876602
0.000876602
0.000876602
0.000876602
0.000876602
0.65702
0.0377925
0.226868
0.000876602
0.000876602
0.000876602
0.000876599
0.00087489
0.000876602
0.000876603
0.000869423
0.00251886
0.000876602
0.532487
0.653187
0.000876602
0.000875639
0.000876602
0.0004562
0.000876602
0.000869573
0.000869661
0.796016
0.000876594
0.000876602
0.000876602
0.000876602
0.000871942
0.0349417
0.000872013
0.000876534
0.0421781
0.000862645
0.000876603
8.24145
0.000876602
0.000868156
0.000876437
0.000876602
1.26505
0.000876602
0.000876602
0.000876379
0.000873507
0.000873778
0.000874783
0.000938704
0.000873227
0.000873911
0.000874164
0.000865027
0.000874551
0.000876602
0.000872098
0.000875168
0.000940664
0.586107
6.99483
0.000869959
0.000870592
0.000919781
0.000876602
0.000941159
0.874681
0.000864825
0.000930612
0.335606
0.000876599
0.000920997
0.0008669
0.000876602
0.00249184
0.120975
0.000868059
0.000929949
0.000919591
0.444017
0.000876602
0.000876548
0.000869472
0.000850864
0.000871033
0.000876598
0.00118137
0.000876594
0.000876547
0.000931863
0.145274
105.822
0.000876602
0.454931
0.000876602
0.45468
0.000876539
0.000876602
1.05243
0.000876073
0.000940444
0.000863005
0.000867571
0.000936541
0.000909551
0.000873726
0.0145542
0.000876378
0.785158
0.00379595
0.000872547
0.000876603
0.000872445
0.227468
0.000867021
0.000863681
0.000876603
0.000876603
0.000868793
0.000876602
0.000876602
0.000862057
0.000860238
0.000919635
0.000876602
0.000876602
0.000876602
0.779683
0.000876594
0.000876602
0.000876602
0.186593
0.000875748
0.000876602
0.000866595
0.000927418
0.000876602
0.000876594
0.000875249
0.000861931
0.000876603
0.000876602
0.908445
0.00239834
0.000875752
0.383701
0.000917946
0.000921265
0.00135008
0.000876602
0.000867654
0.00092363
0.000876602
0.000876603
0.000870766
0.000868453
2.09406
0.000876602
0.000846899
0.16424
0.000877247
0.505948
0.000868869
0.000867061
0.000775096
0.000870428
0.503619
0.000870995
0.704163
0.000876602
0.000876603
0.726683
0.000876602
0.000876602
0.666141
0.204655
0.000876488
0.000874922
0.000876602
0.000876602
0.000933379
0.660282
0.000876602
0.0739325
0.000876602
0.000876602
0.190875
0.830232
0.000866745
0.000873149
0.998344
0.000841135
0.0010432
0.000860073
0.000876603
0.000876602
0.000876603
0.000876602
0.000922769
0.000941148
0.000876602
0.000876602
0.000862978
0.0174447
0.000932795
0.00087889
0.661662
0.000586221
0.000920519
0.0019419
0.000876603
0.000869429
0.000919272
0.668269
0.000876603
0.000876602
0.0264495
0.000876602
0.000876603
0.000876586
0.000876602
0.000876602
0.000922435
0.65796
0.000846376
0.000876602
0.000832817
0.000844654
0.000921789
0.000876602
0.000876602
0.000876602
0.000876602
0.162064
0.000876602
0.923662
0.92075
0.000876603
0.000876602
0.000859412
0.000842601
1.26635
0.817619
0.000876603
0.000937537
0.760547
0.000876602
0.000876602
0.000876603
0.000841934
0.000876602
0.000876602
0.000876602
0.000876602
0.000929466
0.000876603
0.000874822
0.000844994
0.000898984
0.000946645
0.000876603
0.698071
0.777676
0.00114856
0.000870905
0.000876602
0.0134354
0.000876602
0.000876603
0.000876603
0.899685