/*--------------------------------*- C++ -*----------------------------------*\
| =========                 |                                                 |
| \\      /  F ield         | OpenFOAM: The Open Source CFD Toolbox           |
|  \\    /   O peration     | Version:  2312                                  |
|   \\  /    A nd           | Website:  www.openfoam.com                      |
|    \\/     M anipulation  |                                                 |
\*---------------------------------------------------------------------------*/
FoamFile
{
    version     2.0;
    format      ascii;
    arch        "LSB;label=32;scalar=64";
    class       volScalarField;
    location    "0.1";
    object      k;
}
// * * * * * * * * * * * * * * * * * * * * * * * * * * * * * * * * * * * * * //

dimensions      [0 2 -2 0 0 0 0];

internalField   nonuniform List<scalar> 
32842
(
0.0689767
0.0688716
0.0689767
0.0689767
0.0715025
0.0689767
782.157
805.124
0.0689767
0.0689767
367.074
264.994
0.0689767
0.0689767
0.0689719
0.0689757
0.0689767
0.0689767
0.0689767
0.0714271
0.0718045
0.0716348
0.0713485
0.0689767
0.0712639
0.0689767
0.0689767
0.0705706
0.842823
0.0689767
0.49276
0.977158
319.461
0.0689767
353.872
1336.38
0.0713003
0.0689767
0.0689767
0.0689767
0.0689767
0.0717708
0.0689767
0.0689767
0.970781
0.0689767
0.379733
0.0689767
0.0716585
0.500776
533.677
0.0689767
0.982465
0.384816
0.0689767
0.0679938
0.0689767
0.404364
0.0689767
0.0689767
847.375
0.980833
0.980971
0.0717814
0.0689767
0.06799
0.0689767
0.987307
0.978338
0.0689262
0.0704712
0.120338
0.978897
0.0689767
0.0689767
0.0689767
0.372882
0.0689767
0.979778
0.23281
0.0714734
0.0689767
0.0689767
0.981454
0.986798
0.0689767
0.0689767
0.0689829
0.991446
0.0689767
0.0715104
0.071657
0.0693303
0.0689763
0.0689767
0.0689767
0.97913
0.0689744
0.983054
0.0689767
0.0689767
0.0720265
0.0687942
0.959424
0.979056
0.978289
0.760733
0.0688535
0.978535
0.0689032
0.0689767
0.0689767
0.0828002
0.0689767
0.0688095
0.071703
0.981466
1.01085
0.0688835
0.0689767
0.0689767
0.0689767
0.33637
0.0689767
0.0688419
0.979945
0.974688
0.0689767
0.0685345
0.0689767
0.0689767
0.0686941
0.0721133
0.97982
0.0718541
0.0689736
0.0686353
0.909229
0.0689767
0.0689767
0.979654
0.0689767
0.980723
0.0688464
0.0689767
0.0689767
96.7529
0.0689767
0.0689767
0.0689767
0.0688211
0.951585
0.0709936
0.105392
0.0689676
0.0689767
0.0689767
0.0689767
0.0689767
0.0689767
0.0689767
0.0689767
0.071284
0.0689767
0.0689529
0.0689767
0.0689767
0.0689767
0.0689767
20.1873
0.0688595
0.0717145
0.0691412
0.0689767
0.0718498
0.148502
0.0689767
0.0688396
0.0689767
0.0689767
0.0701177
0.0689767
0.0689767
0.0689767
0.98161
0.0689767
0.97961
0.0689767
0.0689767
0.0689767
0.0689767
0.916337
0.977705
0.0689767
0.978272
0.0689767
0.0689767
0.0689767
0.978774
0.0689767
0.0689767
0.0689767
0.923545
0.218407
0.060648
0.0727282
0.0689767
0.071802
0.976105
0.0689767
0.0689767
0.068974
0.0733788
0.074611
0.0689767
0.0689767
0.0689767
0.0689767
0.0689767
0.0689739
0.90559
0.0689767
0.0689767
0.0689767
0.0720109
0.974223
0.0689767
0.979596
0.0689767
0.0655379
0.0689767
0.0689767
0.0689767
0.0689767
0.0757278
0.0714647
0.0715449
0.0687099
0.0689767
0.980799
0.205957
0.0689767
0.0689767
0.286209
0.0689767
0.0689767
0.980228
0.0689767
0.0689767
0.0689767
0.0689767
0.0689767
0.0689688
0.980099
0.0689767
0.0689767
0.0689767
0.0687276
0.0689767
0.0689767
0.0689767
0.0689767
0.0689767
0.0689767
0.976525
0.0689767
0.0689767
0.0689767
0.0689767
0.0689767
0.0689767
0.981978
0.0689767
0.974128
0.0689767
0.217784
0.0689767
0.0716816
0.0689767
0.0689767
0.0689767
0.0686348
0.0700621
0.0689767
0.0689767
0.0689173
0.0684495
0.0689767
0.0717966
0.0689767
201.631
0.0689767
0.977818
0.0718282
0.350372
0.0688686
0.977407
0.0689767
0.0689767
0.0712372
1.63337
0.0689767
0.0689767
0.0689767
0.0689767
0.0689767
0.0689767
0.0689767
0.0689767
0.979998
0.0689767
0.0689767
0.981421
0.0689767
0.0689767
0.0689767
0.0689767
0.439519
0.0689767
0.0689767
0.0689767
0.0832421
0.0689767
0.0698615
0.0689767
0.0689767
0.0689767
0.0689767
0.0689767
0.0689767
0.0689767
0.98275
0.0689767
0.0689767
0.0689767
0.0689767
0.98543
0.978944
0.0689767
0.0689767
0.0689767
0.0689767
0.0687059
0.0689767
0.9797
0.0689767
0.0689767
0.976522
0.980731
0.97953
0.0689767
0.0684723
0.0689767
0.979049
0.0689767
0.0689767
0.0713096
0.0689767
0.0689767
0.0689767
0.0689767
0.0689767
0.0689767
0.693735
0.0689767
0.0689766
0.0689767
0.0689767
0.0686891
0.0711547
0.0689767
15.1941
0.0689767
0.0715146
0.0689767
0.979784
0.0715324
0.0689767
0.0687516
0.0713094
0.0689767
0.979844
0.980238
0.0689767
0.0689767
0.0689767
0.0689767
0.0689767
0.0689767
0.0689767
0.0689767
0.0689767
0.0689767
0.0689767
0.0689767
0.0689767
0.0689767
0.0689767
0.0689767
0.0689554
0.390484
0.0689767
0.0689767
0.0689131
0.0669957
0.0689746
0.0689767
0.0719496
0.0689767
0.0713002
0.974603
0.0689767
0.0689767
0.0689767
0.0689767
0.0689767
0.0689767
0.0689767
0.0689766
3719.96
0.0689766
0.978322
0.0689767
0.0718297
0.28781
0.0689767
0.0689767
0.0689767
0.0689657
0.0689767
0.0689767
0.0689767
0.0689767
0.980748
0.071451
0.980855
0.0689767
916.612
0.07783
0.981064
0.0717824
0.307299
0.0713533
0.98154
0.0689767
0.0689767
0.0701269
0.0689767
0.0710822
0.0687523
0.0689767
0.0689767
0.0689767
0.0750713
0.0709336
0.0689767
0.0689767
0.0715878
0.0689753
0.0689768
0.0689767
0.0719519
0.0689767
0.0689767
0.0689767
0.0689724
0.0689767
0.981085
0.0689767
0.0688268
0.0689767
0.0719954
0.0715296
0.0689767
0.0689767
0.981367
0.980222
0.0689767
0.0689767
0.0689767
0.0689767
0.0714839
0.0689767
0.282799
0.981286
0.0689767
0.0689767
0.982298
0.0688798
0.0689767
0.071367
0.0687788
0.0701961
0.0689608
0.978883
0.0718271
0.977078
0.980328
0.0686609
0.0689767
0.0716616
0.0705014
0.0689672
0.980231
0.0715452
0.982989
0.0709546
0.0689767
0.0689185
0.0715258
0.0689767
0.979656
0.0689767
0.97846
0.0689767
0.0689767
0.0714746
0.0717299
0.0689363
901.455
1.03327
0.0948156
0.0692598
0.0691372
0.0698491
0.981249
0.0689767
0.0689767
0.0689767
0.982069
0.447851
0.98388
0.0930489
0.0689763
0.0689767
0.0709885
0.570502
0.0689767
540.44
0.042258
0.0689765
0.188047
0.0689178
0.0689945
0.0689767
0.0689767
0.0689766
0.980421
0.694457
0.0689767
0.0720176
0.0689767
0.402235
0.97753
0.0689767
0.0689767
0.0689767
0.0689767
0.284465
0.111141
0.0689767
0.0689767
0.0689741
0.978725
0.401466
0.983517
0.0689767
0.0689767
0.0689767
0.32904
0.982644
0.979343
0.549169
0.977713
0.0689767
0.0683114
0.977613
0.0689767
0.438491
0.0689767
0.0715051
0.0689767
0.0686758
0.0715571
0.0713131
0.0689767
0.0689767
0.0689767
0.0689767
0.982461
0.0718689
0.0689767
0.0689767
0.267299
0.0689767
0.072302
0.603
0.983637
0.0689751
0.0689767
0.405819
0.632211
422.545
0.0689767
0.174754
0.983312
0.0784231
0.0687994
0.320997
0.0689767
0.0689767
0.0689767
0.0689767
0.0689767
0.575518
0.0715841
0.0689767
0.0689767
0.0689767
0.0689767
0.0689767
0.0689767
0.0689765
0.732451
0.982516
0.0689767
0.0689767
0.0104619
0.636439
0.831169
0.0689767
0.948865
0.0689767
0.0689767
0.0689767
0.368373
0.980874
0.0689767
0.0714076
0.0689767
0.899692
0.0689767
0.0689767
0.0689767
0.0689767
0.940225
0.0689767
0.0689767
0.238277
0.389261
0.0689764
0.0689767
0.0689767
0.980179
0.98589
0.0689767
0.978604
0.0714263
0.0689767
0.0689767
0.146822
0.0673994
0.0689767
0.982532
0.0836814
0.0689762
0.068644
0.0689767
0.0689767
0.0716791
0.0715338
0.0689535
0.0689668
0.463247
0.0689767
0.069332
0.0689767
0.0689767
0.70422
0.0725628
0.0858741
0.0951343
0.0689767
0.0689767
0.0711346
0.0713651
0.213271
0.449987
0.0836326
0.150825
0.068951
0.0688047
0.0689623
0.0689767
0.55187
0.0689767
0.0689767
0.98571
0.385137
0.0689762
0.0689767
0.0689767
0.0689767
0.0689767
0.0689767
0.0689767
0.0689767
0.0689767
0.982255
0.0689767
0.0689767
0.0689767
0.9855
0.0689767
0.0689767
0.0689767
0.975456
0.0689767
0.0689767
0.0689767
0.0689767
0.0689767
0.0689767
0.0689554
0.0689767
0.0689767
0.0689767
0.0689767
0.0700545
0.0689752
0.0716458
0.0700349
0.0719399
0.0689767
0.07158
0.0715903
0.974993
0.0689767
0.0689767
0.0710155
0.557503
0.0689767
0.974889
0.0713381
0.0689767
0.0689767
0.0687565
0.0689767
0.0689767
0.981486
0.0689767
0.0689767
0.0689767
0.0717904
0.976804
0.0689767
0.0713884
0.0689767
0.0711059
0.194744
0.0667633
0.0711901
0.0689767
0.981842
0.0689767
0.0689767
0.0689767
0.0689767
0.0689767
0.0689767
1.02359
0.0689767
0.0689055
0.98085
0.0713931
0.0689767
0.0689208
0.0689767
0.982274
0.0720369
0.981129
0.0689766
0.979716
0.97427
0.071559
0.0689767
0.0709828
0.0689767
0.071994
0.0689767
0.0689767
0.0717221
184.669
0.979763
0.0689767
0.0675281
0.0689755
0.977416
0.0689765
0.0689767
0.0689767
0.0689767
0.0689767
0.0689767
0.0689767
0.0689767
0.0689767
0.0689767
0.0689767
0.0689767
0.981925
0.0689753
0.90055
0.0689767
0.0689767
0.0715298
0.108943
0.0689767
0.0689767
0.071751
0.0689767
0.0688789
0.0689768
0.0720436
0.986426
0.0689767
0.0689767
0.0689767
0.068976
0.0689767
0.0689389
0.0689767
0.0689767
14.3219
0.0689767
0.519027
0.0689767
0.0689767
0.0689674
0.0689571
0.0711772
0.0689767
0.0689767
0.0689767
0.0689767
1.03369
0.0689767
0.0689767
0.98083
0.0689754
0.978952
0.0689767
0.0681795
0.0689767
0.0689767
0.983896
0.0685638
0.0689767
0.0689767
0.0691412
0.0709559
0.0689767
0.0689767
0.0689767
0.0689767
0.0689767
0.977912
0.71357
0.977876
0.0689767
0.979169
0.0689767
0.0689767
0.0689767
0.0689043
0.0700731
0.0689767
0.0689767
0.0689767
0.0689767
0.068915
0.0689767
0.0689767
0.0689767
0.0689757
0.0765176
0.0714454
0.0689767
0.923546
0.373345
0.0689767
0.0688132
0.626499
0.0689767
0.0689767
0.0689767
0.974051
0.0689767
0.0689767
0.977594
0.0716445
0.0689767
0.0689767
0.0689767
0.0689767
0.0700546
0.925716
0.0689767
0.0689767
0.979051
0.0689767
0.0689767
0.733384
0.0689767
0.0689767
0.0689767
0.0689767
0.978884
0.0689767
0.0689767
0.0689767
0.0689767
0.0712351
0.0689767
0.979028
0.0715176
0.0682519
0.0689767
0.0689767
0.0689767
0.0689767
0.0689767
0.0689767
0.992132
0.467859
0.0708932
0.0749052
0.0689767
0.0711825
0.0689767
0.0689767
0.0689767
0.0689767
0.0689767
0.0689767
0.0689767
0.0689767
0.0689767
0.0689767
0.755239
0.0689767
0.984642
0.0689767
0.981883
0.982499
0.0689767
0.0712891
0.979843
0.377728
0.0901167
0.0712164
0.0689767
0.0689767
0.0689767
0.0689767
0.647862
0.0689767
0.496092
0.257628
0.117647
0.14779
0.0700829
0.068175
0.0689767
0.0687789
1273.2
0.0689767
0.037818
0.0686243
0.0689766
0.0689767
0.0689767
0.0700727
0.0689767
0.979088
0.0716033
1.87645
0.973066
0.980186
0.0713299
0.0689767
0.0689767
0.0689767
0.0689767
0.0689767
0.0689767
0.0689767
0.0689767
0.688251
0.0719639
0.0689767
0.298952
0.0689767
0.0689767
0.0689493
0.0689767
0.557773
0.964956
0.0689767
0.0689767
0.0689767
0.978603
0.885472
0.0689767
0.0686122
0.979552
0.841611
0.0689764
0.0689758
0.412764
0.983023
0.0689767
0.0689767
0.0689767
0.0689739
0.068935
0.0689655
0.974964
0.0689767
0.0689767
0.0689767
0.0689767
0.0689626
0.0974741
0.0689767
0.0689767
1.38662
0.915346
0.978055
0.0689767
0.069141
0.0657488
0.0689767
0.0689767
0.0689767
0.983566
0.0685509
0.0689767
0.0706983
0.0700856
0.0689767
0.0689577
0.0685153
0.0689766
0.0689767
0.0689767
0.0689767
0.067226
0.0689755
0.0689634
0.0687782
0.11409
0.0702647
0.0698792
0.0684216
0.0689767
0.0706917
0.974837
0.0689767
0.983362
0.969293
0.0693856
0.0686113
0.0694992
0.0686238
0.0689767
0.311281
0.979848
0.0688344
0.0689767
0.0689767
0.0689767
0.0689767
0.0689767
0.0689743
0.0689767
0.658466
0.0689767
0.0689767
0.074938
0.0689767
0.0689762
0.159086
0.879309
0.0689098
0.0688552
0.0689767
0.762895
0.068499
0.976917
0.0689744
0.0689767
0.0689496
0.508898
0.0760661
0.0713078
0.0688328
1.66453
0.0689767
0.115337
0.0688162
0.0689767
0.819379
0.0723576
0.0689758
0.0853769
0.0689767
0.0689767
0.739123
0.0828257
0.0687679
0.0689767
0.0689767
0.0689767
0.0689767
0.0688158
0.0687654
0.0686526
0.0689767
0.0689767
0.0694018
0.0689767
0.0689767
0.0573446
0.0689767
0.0687675
0.0683231
0.0689767
0.0689767
0.0685918
0.0701615
0.0686905
0.177952
0.0689767
0.0692317
0.844218
0.0726693
0.0658437
0.0687662
0.980574
0.0689767
0.0689767
0.0689209
0.384972
0.0712735
0.0689767
0.28831
0.981009
0.0689382
0.590669
0.0689767
0.799486
0.91568
0.0684777
0.0689767
0.0689767
0.0685307
0.0689767
0.0689767
0.490468
0.0688254
0.0682594
0.0685554
0.0716258
0.0698966
0.0689767
0.0689767
0.0686183
0.958
0.0689767
0.0688691
0.0689767
0.782594
0.0689764
0.736959
0.583519
0.0688045
0.378202
0.511799
0.279304
0.0686183
0.0687786
0.413297
0.068879
0.981456
0.0688125
0.0685989
0.0708529
0.0689767
0.0685667
0.0689766
0.0688463
0.0712747
0.0686336
0.978254
0.0686433
0.0713669
0.981525
2.75051
0.0689767
0.069538
0.0716285
0.982928
0.484368
0.0689765
0.0686754
0.422885
0.071461
0.071673
0.0689767
0.982207
0.0689767
0.0709655
677.068
0.0713445
0.0689767
0.978967
0.487421
0.0689767
0.0688757
0.0689767
0.0689767
0.0689767
0.0689767
0.938433
0.0712014
0.0689767
0.562373
0.973217
0.0689759
0.0689179
0.640212
0.0689767
0.0689767
0.0689521
0.0696537
0.0686575
0.0689767
0.069023
0.0689767
6.18735
0.40776
0.0687534
0.978359
0.999119
0.0812595
0.0729318
0.0688634
0.861657
0.0684222
0.45967
0.0758871
0.0681379
0.0718157
0.0691514
0.0689767
0.0689725
0.0689754
0.977902
0.0689767
0.068905
0.0689767
0.0717069
0.0699241
0.653874
0.888211
0.0716742
0.0689767
0.0726962
0.977295
0.0689767
0.0689767
0.748663
0.444635
0.0689767
0.983178
0.0689763
0.0685782
0.0688279
0.983248
0.0689651
0.0689767
0.0688871
0.381662
0.0714742
0.0689547
0.0712148
0.0689767
0.0689734
0.883195
0.0689767
0.977525
0.980346
0.0689614
0.12059
0.0689767
0.506528
0.549525
0.0689767
0.0723584
0.338847
0.0689767
0.0689767
0.0689739
0.479461
0.0689767
0.0687844
0.0689767
0.0720457
0.0687901
0.0688436
0.0689096
0.0689767
0.0689767
0.0689767
0.0689767
0.0689767
0.0689703
0.0689767
0.0689767
0.0699305
0.0689208
0.0689767
0.0611886
0.0687641
0.0689767
0.0689767
0.0688476
0.0689767
0.0718515
0.0700604
0.0689767
0.0689503
0.0688424
0.0687575
0.603965
0.436493
0.0718719
0.974502
0.0682349
0.0689767
0.0689767
0.0694722
0.0705809
0.0715573
0.981366
0.0689512
0.0689767
1.54981
0.0716045
0.20742
0.0711893
0.0722946
0.0708685
0.0689767
0.0654458
0.0689767
0.0689767
0.0713216
0.0703647
0.559534
0.974216
0.071306
0.0713561
0.0711574
0.0730115
0.0689767
0.0451847
0.0696717
0.0712575
0.146012
0.0689767
0.136021
0.0689767
0.0686813
0.0689767
0.0704549
0.0689767
0.0719667
0.0689767
0.0689767
0.071689
0.0688117
0.848027
0.0687706
0.0689767
0.0689767
0.0686919
0.0689767
0.0689767
0.171925
0.0689767
0.0695961
0.0689767
0.0689767
0.0689764
0.0689767
0.0689767
0.0689767
0.070576
0.0689767
0.0700381
0.954422
0.0689078
0.0689767
0.0689759
0.0689767
0.0689767
0.0689767
0.0692072
0.0689767
0.0689767
0.0689767
0.071542
0.973421
0.0689767
0.0689767
0.0689767
0.0347028
0.0689767
0.0689767
0.0689766
0.0689767
0.0689767
0.979915
0.0689767
0.0689767
0.0689767
0.244145
0.0689762
0.0689749
0.0689767
0.980008
0.0688213
0.0688235
0.0686194
0.0689767
0.0687547
0.0689767
0.0687731
0.0689767
0.0689766
0.0689723
0.0865533
0.0709192
0.0689741
0.0727869
0.0692349
0.0697583
0.0689767
0.068166
0.0686887
0.0711659
0.068975
0.0682198
0.0689667
0.0689767
0.0689767
0.0689701
0.0689767
0.0689862
0.0705803
0.0689767
0.0689767
0.0689759
0.0689758
0.0688546
0.411755
0.0689767
0.0853733
0.069567
0.0689767
0.0688038
0.945866
0.0687695
0.0687569
0.0689767
0.068973
0.978245
0.0689767
0.0700241
0.0689767
0.0688226
0.0689767
0.981163
0.0712616
0.0689767
0.0689767
0.0689767
0.0689767
0.0687581
0.0689767
0.068481
0.0689767
0.0685769
0.0685241
0.0715422
0.0689767
0.395407
0.98599
0.0689767
0.891804
0.757042
0.0713315
0.0689561
0.0689767
0.980898
0.0688448
0.710641
0.848606
0.0689767
0.0689767
0.0726085
0.0689767
0.0687059
0.0689767
0.0689767
0.0717238
0.0780813
0.0689767
0.0689767
0.053767
0.0689767
0.0689767
0.0689767
0.0689767
1.00948
0.979048
0.0760882
0.0689767
0.0689767
0.0689767
0.0689213
0.0686191
0.38564
0.15061
0.0716522
0.0689767
0.0689767
0.0689767
0.0689767
0.064886
0.0618181
0.0689767
0.0689767
0.0689767
0.0689767
0.977756
0.0689767
0.981935
0.0689767
0.981706
0.0717529
0.0687421
0.0689767
0.0689767
0.0689767
0.0689767
0.0689767
0.0689767
0.0689767
0.977143
0.0689767
0.068662
0.838258
0.0687554
0.0689767
0.0689767
0.0689767
0.0689767
0.0688025
0.068349
0.0689767
0.0689767
0.0689767
0.981725
0.0685708
0.079059
0.0670324
0.0696411
0.980162
0.071261
0.482784
0.0689725
0.97841
0.0689767
0.0689767
0.0717612
0.940285
0.898311
0.0723945
0.068946
0.979658
0.728019
0.0689767
0.0689767
0.0687655
0.0689767
0.0689767
0.0689767
0.0711176
0.497961
0.0689767
0.0696073
0.380824
0.0689767
0.0689767
0.0689767
0.0689767
0.0689767
0.0689767
0.0689767
0.0717789
0.0688833
0.0688499
0.0686784
0.450188
0.0688771
0.0686386
0.981955
0.0689763
0.0716147
0.0686381
0.0686925
0.0716303
0.0719294
0.0686452
0.982795
0.0688832
0.0680875
0.0689767
0.0689767
0.0686365
0.0689755
0.0689761
0.0689767
0.0689767
0.0718569
0.0689767
0.0689692
0.0689756
0.0689767
0.0689757
0.068971
0.0689759
0.0689269
0.981783
0.0689767
0.0686079
0.0689767
0.0689662
0.0689768
0.0689767
3.61516
0.0689132
0.0689581
0.975718
0.0687259
0.0689767
0.0689767
0.0686626
0.0749849
0.603435
0.0686985
0.0689767
0.0682425
0.0689767
0.0689767
0.0689767
0.30362
0.0689767
0.0689767
0.0689767
0.0617486
0.0711421
0.0689767
0.0716725
0.0689767
0.982755
0.071245
0.0689766
0.0686592
0.0689767
0.0689767
0.0689764
0.0689767
0.0689767
0.0689767
0.0719199
0.0689767
0.0689767
0.0687773
0.98116
0.06845
0.0689767
0.0687924
0.0722922
0.0688174
0.331396
0.977762
0.197627
0.0688032
0.0688312
0.0718717
0.0689767
0.0687513
0.0689767
0.232006
0.974451
0.0717741
0.979352
0.982727
0.0689767
0.0689767
0.983524
0.0689767
0.0689767
0.893195
0.0712737
0.0689767
0.0689767
0.0688629
0.0689767
0.0689767
0.0689767
0.0689767
0.0689767
0.985805
0.0689767
0.0689767
0.0689767
0.0689767
0.0689767
0.904273
0.615205
0.0718945
0.0689767
0.0714256
0.072589
0.0689767
0.0689767
0.0689767
0.078646
0.979841
0.251182
0.0689767
0.0512662
0.0689767
0.0689767
0.95786
0.975852
0.0689767
0.0689252
0.0689767
0.0689767
0.0689767
0.0689767
0.0689767
0.0689767
0.0686763
0.447922
0.982403
0.0689767
0.0689767
0.0511513
0.0689767
0.0702533
0.0689767
0.071322
0.0689767
0.0689767
0.0689767
0.0678365
0.917497
0.0689095
0.0688951
0.0689767
0.0689767
0.0689108
0.0689767
0.983599
0.0711443
0.0704559
0.976378
0.0689767
0.0692111
0.0689767
0.0689767
0.0689767
0.0689767
0.0689767
0.0689767
0.979668
0.0689767
0.0762345
0.0689767
0.0688548
0.0689744
29.0488
0.0689767
0.0689767
0.64307
0.980001
0.0689767
0.0689767
0.0689767
0.0689767
0.069391
0.0689767
0.981414
0.0689394
0.0689767
0.0689838
0.0686403
0.0689701
0.0688308
0.0689767
0.0687484
0.0689767
0.0689767
0.07065
0.0689717
0.0689767
0.0708304
0.0689767
0.0689767
0.0689767
0.0689767
0.068851
0.0740764
0.0689767
0.0688414
0.0685027
0.0707636
0.241223
0.0689767
0.0689767
0.547212
0.0689767
0.0689764
0.377827
0.0689767
0.849653
0.543408
0.182979
0.979181
0.0689767
0.0689766
0.0689767
0.0689767
0.0689765
0.978017
0.0689767
0.975951
0.0689767
0.0616828
0.0768647
0.0689767
0.170778
0.0689767
0.0689764
0.0689616
0.518497
0.981356
0.0689767
0.989694
0.0689692
0.0689767
0.0689767
0.0689621
0.0689757
0.0689767
0.0722083
0.979314
0.0688324
0.0689767
0.068869
0.0689767
0.0697185
0.0689767
0.0697303
0.0689767
0.0689767
0.0689595
0.0712188
0.0689767
0.0689782
0.0695417
0.0689744
0.0689701
0.0689767
0.0697996
0.0689734
0.0689767
0.0689767
0.384342
0.0689767
0.0689767
0.0689767
0.0686452
0.0758378
0.272165
0.0741653
0.0687193
0.0306806
0.0689767
0.0689653
0.0689017
0.068833
0.0689767
0.0689767
0.0694025
0.0702668
0.749363
0.0689767
0.0689767
0.9812
0.981668
0.0704682
0.0689767
0.0689767
0.2261
0.428819
0.0734741
0.0699686
0.599651
0.0689767
0.068958
0.0682246
0.0689767
0.0689767
0.0714164
0.0694365
0.0686947
0.436791
0.980009
0.0769155
0.0689767
0.614533
0.0697076
0.0689767
0.0689767
0.0722109
0.068825
0.0689767
0.0689767
0.0689767
0.0688109
0.0688846
0.0687966
0.66046
0.0689767
0.0689767
0.0689767
0.0689767
0.0708201
0.137622
0.0689767
0.0689767
0.0689767
0.0578512
0.0700106
0.0689767
0.0689731
0.0689593
0.0689767
0.0687221
0.0689767
0.0689767
0.0720751
0.0688149
0.374524
0.0689767
0.0687708
0.0689767
0.0687514
0.0687398
0.069161
0.0689767
0.0688281
0.0686059
0.0689767
0.0689767
0.0689767
0.0689767
0.068848
0.0687837
0.0687365
0.0722793
0.0695745
0.068137
0.0714253
0.0580113
0.0714922
0.0722408
0.0689767
0.0689767
0.0714627
0.0689767
0.0710688
0.0689767
0.0689417
0.0689752
0.0712548
0.0689767
0.0687272
0.0720569
0.0689767
0.0689767
0.0689762
0.0689767
0.0689753
0.0689767
0.974112
0.0689767
0.0689767
0.0691717
0.0689767
0.0692712
0.0699703
0.979524
0.0690534
0.979152
0.0693806
0.979616
0.0689767
0.0689767
0.0689767
0.976228
0.0689767
0.0816998
0.0689767
0.0689253
0.0689767
0.0689767
0.0689767
0.0689767
0.0689767
0.06895
0.0689767
0.981037
0.0689767
0.0689767
0.068572
0.0688384
0.0689767
0.00892504
0.976697
0.0689767
0.0689767
0.0689767
0.984932
0.0559288
0.0698615
0.0697609
0.070535
0.0689767
0.0689767
0.0689767
0.0689622
0.0689767
0.0689767
0.0711791
0.0689767
0.0689767
0.0689767
0.0688813
0.0689767
0.0689767
0.0689764
0.0689767
0.0692346
0.0735842
0.069445
0.0813312
0.57198
0.0689767
0.0689767
0.0733547
0.0689666
0.0689767
0.0685377
0.0715782
0.0689767
0.0689767
0.0719758
1.04131
0.840673
0.0689767
0.0689767
0.0714169
0.0783193
0.0689767
0.0689767
0.0689767
0.0722031
0.0685093
0.0687219
0.0725856
0.0689767
0.0689767
0.0689767
0.0689767
0.0689767
0.0689767
0.0689767
0.0689767
0.0689767
0.0689767
0.0689767
0.0689767
0.0689767
0.0685652
0.0689767
0.169792
0.0685375
0.0575001
0.0686626
0.980392
0.981433
0.0688694
0.0686685
0.0689767
0.0689565
0.0689762
0.885428
0.955922
0.976656
0.0687342
0.0634749
0.183968
0.0685744
0.0683741
0.0713428
0.0688026
0.0687764
0.0773426
0.0845427
0.0685708
0.0689767
0.0689767
0.0689633
0.0689669
0.978414
0.0685977
0.0739486
0.0686062
0.068721
0.0689746
0.0689767
0.0689767
0.0686956
0.0689176
0.068961
0.0689767
0.985654
0.0688379
0.0689767
0.0689767
0.0689714
0.0689767
0.0689767
0.0689767
0.977651
0.0689767
0.0689767
0.0689767
0.0693074
0.0688752
0.0687695
0.0687519
0.0689767
0.0690274
0.0689767
0.0689744
0.0689767
0.0686808
0.642796
0.904098
0.0689764
0.0689211
0.0689767
0.0689767
0.0687529
0.984854
0.249069
0.0863843
0.980336
0.0689767
0.0678904
0.0689767
0.0689767
0.0689767
0.0688891
0.0689767
0.00885887
0.0689767
0.448723
0.0685512
0.0689764
0.0689767
0.0707338
0.0688573
0.982899
0.0689767
0.074599
0.0689767
0.0689396
0.0685008
0.0689767
0.0689767
0.0658157
0.0689767
0.0689767
0.0689767
0.0751446
0.068989
0.0689767
0.0993863
0.0689767
0.0689767
0.0689767
0.0689767
0.0689767
0.0689767
0.0689767
0.0689767
0.0689767
0.0689767
0.0768167
0.0689767
0.0688549
0.0689536
0.072145
0.0717317
0.827282
0.0681492
0.0689767
0.0689767
0.0689767
0.157384
0.0683632
0.0689767
0.0689767
0.0672012
0.0686884
0.0686592
0.42342
0.0689467
0.0689767
0.975891
0.978437
0.0687616
0.0689767
0.0689763
0.0688943
0.98288
0.0689759
0.0685074
0.0689767
0.0689767
0.719926
0.233563
0.0688437
0.0693676
0.0689773
0.068974
0.0689236
0.0716265
0.0689767
0.0448366
0.0712181
0.071069
0.0717991
0.0689767
0.0689767
0.452545
0.0746251
0.0689767
0.0689767
0.0689767
0.0689767
0.0689767
0.0689767
0.978561
0.351544
0.359309
0.0689767
0.0689767
0.0689767
0.0689766
0.0689145
0.0689767
0.0689767
0.0687208
0.129894
0.0689767
0.971917
0.979324
0.0689767
0.0689415
0.0689767
0.0527221
0.0689767
0.0687278
0.068762
0.984614
0.0689764
0.0689767
0.0689767
0.0689767
0.0688088
0.586057
0.068813
0.0689742
0.70836
0.0690202
0.0689767
632.176
0.0689767
0.0686825
0.0689708
0.0689767
0.984083
0.0689767
0.0689767
0.0689685
0.0688643
0.0688746
0.0689099
0.0720677
0.0688545
0.0688901
0.0688888
0.0685704
0.0689026
0.0689767
0.0688144
0.0689241
0.0721676
0.97693
431.61
0.0687505
0.0687639
0.0711347
0.0689767
0.0721908
0.979971
0.0685714
0.0716717
0.945949
0.0689766
0.0711964
0.0686467
0.0689767
0.156369
0.525114
0.0687222
0.0716389
0.0711263
0.969659
0.0689767
0.0689747
0.0687272
0.0683
0.0687807
0.0689766
0.0825731
0.0689764
0.0689747
0.0717432
0.457341
993.769
0.0689767
0.970331
0.0689767
0.970367
0.0689744
0.0689767
0.980908
0.0689572
0.0721554
0.0685676
0.0686648
0.0719636
0.0767893
0.0688727
0.38084
0.0689684
0.98223
0.163521
0.0688407
0.0689767
0.0688298
1.07225
0.0699562
0.0686613
0.0689767
0.0689767
0.0701512
0.0689767
0.0689767
0.069104
0.0686749
0.0711281
0.0689767
0.0689767
0.0689767
0.981466
0.0689764
0.0689767
0.0689767
0.894485
0.0689452
0.0689767
0.0686292
0.0715141
0.0689767
0.0689764
0.0714542
0.0690701
0.0689767
0.0689767
0.978557
0.122733
0.0689454
0.963101
0.0710466
0.0712106
0.0722172
0.0689767
0.0686593
0.0713247
0.0689767
0.0689767
0.0695502
0.068705
161.385
0.0689767
0.0687048
0.750236
0.0691579
0.972909
0.0687115
0.068775
0.0645848
0.0712543
0.973049
0.0703886
0.978134
0.0689767
0.0689767
0.980738
0.0689767
0.0689767
0.978313
0.938661
0.0689725
0.0689151
0.0689767
0.0689767
0.0718073
0.97865
0.0689767
0.834751
0.0689767
0.0689767
0.706782
0.982308
0.0697336
0.0688516
0.987666
0.0686982
0.077317
0.0689046
0.0689767
0.0689767
0.0689767
0.0689767
0.0712845
0.0722026
0.0689767
0.0689767
0.06927
0.574039
0.0717782
0.0715707
0.978165
0.056553
0.071172
0.131553
0.0689767
0.0705353
0.07111
0.98056
0.0689767
0.0689767
0.439269
0.0689767
0.0689767
0.0689765
0.0689767
0.0689767
0.0712676
0.978494
0.0677303
0.0689767
0.0680038
0.069347
0.0712363
0.0689767
0.0689767
0.0689767
0.0689767
0.530727
0.0689767
0.981141
0.981536
0.0689767
0.0689767
0.0706956
0.0687072
0.986044
0.981329
0.0689767
0.0720107
0.981863
0.0689767
0.0689767
0.0689767
0.0684176
0.0689767
0.0689767
0.0689767
0.0689767
0.0716142
0.0689767
0.068912
0.0685649
0.0700991
0.0724592
0.0689767
0.978396
0.982095
0.10313
0.0687486
0.0689767
0.493327
0.0689767
0.0689767
0.0689767
0.984537
0.0689767
0.0718238
0.984756
0.0689767
0.0689767
0.979107
0.0689767
0.0689767
1.89301
0.983859
0.0688556
0.983372
0.0689767
0.0689767
0.0689767
0.0689767
0.0689767
1.76474
0.0689767
0.982185
0.0715249
0.0689767
0.0689767
0.49599
0.0689767
0.975284
0.0713322
0.0689767
0.0689767
0.0689767
0.0689767
0.0711397
0.979466
0.0689767
0.071725
0.978274
0.0689767
0.0689767
0.0713724
0.0689767
0.0689767
0.0714507
0.0712781
0.0689767
0.0689767
0.0686136
0.97752
0.0716361
0.981107
0.981479
0.0687917
0.983659
0.0689767
0.0689767
0.0689767
0.0689767
0.0689767
0.0688321
0.0688485
0.0689767
0.0713515
0.069143
0.0716077
0.0689351
0.0689767
0.319088
0.858099
0.0711372
0.161669
0.0689767
0.695061
0.0689767
0.0689767
0.0689767
0.0689767
0.976721
0.0689767
0.982089
0.0689767
0.0689767
0.0689767
0.0689767
0.0716399
0.0711329
0.977533
0.983616
0.0689767
0.0689767
0.0423729
0.0745751
0.0689767
0.0689767
0.0713371
0.984489
0.0688645
0.980163
0.0688829
0.0689767
0.0689767
0.0689767
0.0689767
0.0712291
0.981819
0.984389
0.0689767
0.0689767
0.0714965
0.0689767
0.979537
0.0689767
0.0689767
0.0689767
0.0717557
0.0713199
0.0716889
0.0689767
0.0710977
0.979764
0.0689767
0.0689767
0.0689253
0.980299
0.0689767
0.0689767
0.0689767
0.0689764
0.0689767
0.981913
0.0722303
0.0689767
0.0689767
0.987046
0.0689767
0.0689767
0.9748
0.974525
0.0718862
0.0689767
0.0689767
0.0718223
0.0689767
0.0689767
0.0689429
0.0689767
0.0689767
0.0689767
0.0689767
0.0689767
0.0686564
0.0689767
0.0689767
0.0686364
0.0696489
0.0686516
0.0679278
0.0767051
0.0689749
0.974536
0.0691603
0.0685712
0.0714434
0.0692731
0.0689767
0.977854
0.0688445
0.86012
0.0688811
0.0717809
0.0692011
0.288844
0.0688408
0.0699006
0.0689757
0.0689767
0.0854468
0.0689767
0.0685453
0.0684636
0.353542
0.0685277
0.0695265
0.0686585
0.0682811
0.427613
0.0698333
0.0689767
0.0689767
0.0689767
0.285191
0.0685068
0.0689767
0.0715549
0.0689767
0.0689767
0.0689767
0.981894
0.0688625
0.0716749
0.0689767
0.0689767
0.0688253
0.0689763
0.0674162
0.0710373
0.068956
0.635782
0.675382
0.977805
0.0689767
0.978193
0.0443327
0.984488
0.0706223
0.0689763
0.0689767
0.0709906
0.0742167
0.071772
0.0689767
0.0718128
0.175814
0.0689767
0.0689767
0.981236
0.0689767
0.626552
0.0712103
0.0689767
0.98162
0.0689631
0.0689767
0.0711816
0.0717729
0.980349
0.0727005
0.534805
0.0689767
0.979327
0.071706
0.0689767
0.0689646
0.0716822
0.976023
0.0689767
0.0689767
0.0689767
0.974216
0.0710778
0.979283
0.452032
0.646597
0.0692285
0.982529
0.981677
0.0689767
0.0689767
0.0689767
0.0688421
0.0689767
0.0715675
0.0814206
0.070351
0.0680183
0.0701091
0.309725
0.0689767
0.0692379
0.0687789
0.0689767
0.0689767
0.0717225
0.0689763
0.0689767
0.0689767
0.142747
0.0689621
0.0688593
0.0689766
0.068913
0.0157947
0.0835563
0.0689767
0.0689767
0.979912
0.0689767
0.0689767
0.0931449
0.978374
0.0712198
0.924583
0.0689767
0.0713595
0.0700583
0.0689767
0.0689767
0.980388
0.0714094
0.0697418
0.0689767
0.0697138
0.982404
0.978515
0.0687316
0.0686507
0.0687692
0.0689767
0.382319
0.0713251
0.0689767
0.0689767
0.0687261
0.0689754
0.0687861
0.0689767
0.0734877
0.0689767
0.0689767
0.0687752
0.0687564
0.0689767
0.0689637
0.0689718
0.0689753
0.0679713
0.0688631
0.53345
0.976271
0.0689767
0.942104
0.470205
0.0694089
0.779882
0.0833226
0.0741512
0.210785
0.0692992
0.068882
0.0687308
0.0689767
0.0754356
0.0689687
0.0689767
0.79754
0.0689767
0.0689709
0.484285
0.0687631
0.0689767
0.068976
0.0689767
0.200368
0.0689575
0.0689675
0.946687
0.0688263
0.0689767
0.0686229
0.0689767
0.100956
0.0703453
0.068976
0.0689767
0.0689746
0.0688056
0.0689767
0.0692005
0.0756293
0.0701233
0.0689767
0.346959
0.0689763
0.923557
1.21429
0.330825
0.717817
0.0796466
0.068974
0.0689767
0.0684895
0.06752
0.0689767
0.0688102
0.551002
0.0689766
0.0689767
0.0689767
0.0693692
0.980238
0.0689767
0.0689767
0.0689767
0.875676
0.0903274
0.0689767
0.0689767
0.0689767
0.0713741
0.0689767
0.0688598
0.0688943
0.860056
0.125448
0.910096
0.0689051
0.566695
0.429337
0.0689767
0.0689767
0.0689297
0.0721873
0.0689765
0.0689568
0.805864
0.0708087
0.900613
0.0689768
0.388273
0.0715675
0.0689767
0.0702674
0.910904
0.920506
0.091024
0.979
0.0689767
0.0689767
0.0688574
0.0689767
0.0688061
0.0688813
0.139377
0.0689453
0.876257
0.350144
0.0689767