/*--------------------------------*- C++ -*----------------------------------*\
| =========                 |                                                 |
| \\      /  F ield         | OpenFOAM: The Open Source CFD Toolbox           |
|  \\    /   O peration     | Version:  2312                                  |
|   \\  /    A nd           | Website:  www.openfoam.com                      |
|    \\/     M anipulation  |                                                 |
\*---------------------------------------------------------------------------*/
FoamFile
{
    version     2.0;
    format      ascii;
    arch        "LSB;label=32;scalar=64";
    class       volScalarField;
    location    "0.1";
    object      nut;
}
// * * * * * * * * * * * * * * * * * * * * * * * * * * * * * * * * * * * * * //

dimensions      [0 2 -1 0 0 0 0];

internalField   nonuniform List<scalar> 
32842
(
0.00063276
0.000632203
0.000632761
0.00063276
0.000669272
0.00063276
13.1125
12.0987
0.00063276
0.00063276
1.45007
1.328
0.00063276
0.00063276
0.000632625
0.000632755
0.00063276
0.00063276
0.00063276
0.000668172
0.000673675
0.000671221
0.000666996
0.000632761
0.000665801
0.00063276
0.00063276
0.000655642
0.264301
0.00063276
0.0731672
0.478242
16.8139
0.00063276
9.48237
14.0005
0.000666344
0.000632761
0.00063276
0.00063276
0.000632761
0.000673208
0.00063276
0.00063276
0.342323
0.00063276
0.0109855
0.00063276
0.000671573
0.0185078
11.1706
0.00063276
0.593682
0.0127498
0.000632761
0.000621061
0.00063276
0.0126535
0.00063276
0.00063276
10.5193
0.570886
0.635686
0.000673395
0.00063276
0.000628099
0.00063276
0.699467
0.441974
0.000632493
0.000654288
0.00166066
0.502616
0.00063276
0.00063276
0.00063276
0.161523
0.00063276
0.501158
0.00439997
0.00066885
0.00063276
0.00063276
0.556687
0.778249
0.00063276
0.00063276
0.000634399
0.1475
0.00063276
0.000669388
0.000671523
0.000634327
0.000632753
0.00063276
0.00063276
0.487421
0.000632697
0.72189
0.00063276
0.00063276
0.000676955
0.000631789
0.080196
0.498534
0.457489
0.153734
0.000632105
0.534766
0.000632371
0.00063276
0.00063276
0.00089605
0.00063276
0.000631872
0.000672226
0.545795
0.145485
0.000632267
0.00063276
0.00063276
0.00063276
0.0130103
0.000632761
0.000632042
0.495973
0.400782
0.00063276
0.000630001
0.000632761
0.00063276
0.000631249
0.000678232
0.502448
0.000674427
0.000632744
0.000630924
0.0604607
0.00063276
0.00063276
0.535018
0.00063276
0.531164
0.000632046
0.00063276
0.00063276
17.8857
0.00063276
0.00063276
0.00063276
0.000631931
0.1761
0.000661847
0.00142764
0.000632712
0.00063276
0.00063276
0.00063276
0.00063276
0.00063276
0.00063276
0.00063276
0.000666086
0.00063276
0.000632635
0.00063276
0.00063276
0.00063276
0.000632761
1.12271
0.000632122
0.00067239
0.000633443
0.00063276
0.000674369
0.00719446
0.00063276
0.000632031
0.00063276
0.00063276
0.000649156
0.00063276
0.00063276
0.00063276
0.549107
0.00063276
0.508423
0.00063276
0.00063276
0.00063276
0.00063276
0.120438
0.433555
0.00063276
0.450167
0.00063276
0.00063276
0.00063276
0.486209
0.00063276
0.00063276
0.000632761
0.105461
0.00589226
0.000509882
0.00068748
0.00063276
0.000673643
0.454664
0.00063276
0.00063276
0.000632746
0.000664378
0.000664746
0.00063276
0.00063276
0.00063276
0.000632761
0.00063276
0.000632745
0.127464
0.00063276
0.00063276
0.00063276
0.000676751
0.382534
0.000632761
0.469029
0.00063276
0.000584955
0.00063276
0.00063276
0.000632761
0.00063276
0.000653452
0.000668685
0.000669852
0.000631324
0.00063276
0.569478
0.0049008
0.00063276
0.00063276
0.00951768
0.00063276
0.000632761
0.602332
0.00063276
0.00063276
0.000632761
0.00063276
0.00063276
0.000632719
0.486641
0.000632761
0.00063276
0.00063276
0.000629994
0.00063276
0.00063276
0.00063276
0.00063276
0.00063276
0.000632761
0.372469
0.00063276
0.00063276
0.00063276
0.000632761
0.000632761
0.00063276
0.488752
0.00063276
0.377933
0.00063276
0.00420601
0.00063276
0.000671884
0.00063276
0.00063276
0.00063276
0.000628176
0.000637809
0.00063276
0.00063276
0.000633094
0.000629834
0.00063276
0.000673582
0.00063276
21.2971
0.000632761
0.439942
0.000647295
0.145308
0.000632186
0.436674
0.00063276
0.000632761
0.000665407
0.15117
0.000632761
0.00063276
0.000632761
0.00063276
0.00063276
0.00063276
0.00063276
0.00063276
0.575581
0.000632761
0.00063276
0.565612
0.00063276
0.00063276
0.00063276
0.00063276
0.00217237
0.00063276
0.00063276
0.00063276
0.000847506
0.00063276
0.000645464
0.000632761
0.00063276
0.00063276
0.000632761
0.00063276
0.00063276
0.00063276
0.511115
0.00063276
0.00063276
0.00063276
0.00063276
0.951061
0.443463
0.00063276
0.00063276
0.00063276
0.00063276
0.000631308
0.00063276
0.573492
0.00063276
0.00063276
0.464493
0.659561
0.527036
0.00063276
0.000629905
0.00063276
0.485768
0.00063276
0.000632761
0.000666433
0.00063276
0.00063276
0.000632761
0.00063276
0.00063276
0.00063276
0.0315404
0.00063276
0.000632745
0.00063276
0.00063276
0.000631219
0.00066419
0.00063276
0.470594
0.00063276
0.000669475
0.00063276
0.537207
0.000669698
0.00063276
0.000631557
0.000666475
0.00063276
0.58268
0.496638
0.00063276
0.00063276
0.000632761
0.00063276
0.00063276
0.00063276
0.00063276
0.00063276
0.00063276
0.00063276
0.00063276
0.00063276
0.00063276
0.00063276
0.00063276
0.00063276
0.000632648
0.0140464
0.00063276
0.00063276
0.000632423
0.000531939
0.000632749
0.00063276
0.000675832
0.00063276
0.000666301
0.398762
0.00063276
0.00063276
0.00063276
0.00063276
0.00063276
0.00063276
0.00063276
0.00063276
34.2558
0.00063276
0.50301
0.00063276
0.000674076
0.0771044
0.00063276
0.00063276
0.00063276
0.000632696
0.000632761
0.000632761
0.00063276
0.00063276
0.509937
0.000668544
0.971267
0.00063276
85.0884
0.000782344
0.540216
0.00067336
0.00731448
0.000667119
0.550224
0.000632761
0.00063276
0.000649302
0.000632761
0.000663155
0.000631556
0.000632761
0.00063276
0.00063276
0.000663627
0.000660989
0.00063276
0.00063276
0.000670532
0.000632753
0.000632761
0.000632753
0.000675859
0.00063276
0.00063276
0.00063276
0.000632738
0.00063276
0.554176
0.00063276
0.000631964
0.00063276
0.000676496
0.000669692
0.00063276
0.00063276
0.557064
0.518166
0.00063276
0.000632761
0.00063276
0.00063276
0.000669001
0.00063276
0.00696669
0.555758
0.00063276
0.000632761
0.707943
0.000632246
0.00063276
0.000667301
0.000631707
0.000650301
0.000632677
0.527851
0.000674028
0.423735
0.55861
0.000631066
0.00063276
0.000671606
0.000640381
0.00063271
0.52308
0.000669879
0.719037
0.000661278
0.00063276
0.000632601
0.000669587
0.00063276
0.504422
0.00063276
0.495477
0.00063276
0.000632761
0.000668857
0.000672602
0.000632323
11.3646
0.132323
0.00108186
0.000634048
0.000633446
0.000637051
0.539383
0.00063276
0.00063276
0.00063276
0.555997
0.0979189
0.647531
0.00107593
0.000632758
0.00063276
0.000661799
0.119017
0.000632761
3.32661
0.000271215
0.000632759
0.00162596
0.000632434
0.000632741
0.000632761
0.00063276
0.00063276
0.530607
0.0164277
0.00063276
0.000676833
0.00063276
0.161052
0.440364
0.00063276
0.00063276
0.00063276
0.00063276
0.00631141
0.00127877
0.00063276
0.00063276
0.000632746
0.489302
0.0106075
0.695616
0.00063276
0.00063276
0.00063276
0.00787803
0.563852
0.424299
0.123698
0.433754
0.00063276
0.000629089
0.434756
0.00063276
0.0194399
0.00063276
0.000669313
0.00063276
0.000631143
0.000670066
0.00066653
0.00063276
0.00063276
0.00063276
0.00063276
0.56244
0.000674613
0.00063276
0.00063276
0.00608551
0.00063276
0.000681017
0.12933
0.664815
0.000632715
0.00063276
0.0189579
0.118641
13.5892
0.00063276
0.00388069
0.800121
0.00078172
0.000631815
0.0110059
0.00063276
0.00063276
0.000632761
0.00063276
0.00063276
0.0242629
0.000670502
0.00063276
0.00063276
0.00063276
0.00063276
0.00063276
0.00063276
0.000632759
0.0381436
0.688498
0.00063276
0.00063276
2.66497e-05
0.0320726
0.0662834
0.00063276
0.19507
0.00063276
0.00063276
0.000632761
0.0183234
0.503348
0.00063276
0.000667858
0.00063276
0.23027
0.00063276
0.00063276
0.00063276
0.000632761
0.267038
0.00063276
0.00063276
0.00613412
0.0136542
0.000632759
0.00063276
0.00063276
0.443145
0.783842
0.00063276
0.509594
0.000668144
0.00063276
0.00063276
0.0021434
0.000612306
0.00063276
0.710781
0.000838824
0.000632758
0.000629997
0.00063276
0.00063276
0.000671844
0.000669756
0.000632643
0.000632708
0.0133197
0.00063276
0.000640548
0.00063276
0.00063276
0.154795
0.000685973
0.000859203
0.00108277
0.00063276
0.00063276
0.000663914
0.000667257
0.00441095
0.0259279
0.00083721
0.00261261
0.000632625
0.000631843
0.000631653
0.00063276
0.0260036
0.00063276
0.00063276
0.62047
0.0233411
0.000632748
0.000632761
0.00063276
0.00063276
0.000632761
0.00063276
0.00063276
0.00063276
0.00063276
0.577573
0.00063276
0.000632761
0.00063276
0.906185
0.00063276
0.00063276
0.00063276
0.437276
0.00063276
0.00063276
0.000632761
0.00063276
0.00063276
0.000632761
0.000632645
0.00063276
0.00063276
0.00063276
0.00063276
0.000648227
0.000632723
0.000671395
0.000647973
0.000675713
0.00063276
0.000670396
0.000670567
0.421633
0.00063276
0.00063276
0.0006622
0.028486
0.00063276
0.387405
0.000666874
0.00063276
0.00063276
0.000631579
0.00063276
0.000632761
0.590314
0.00063276
0.00063276
0.00063276
0.000673486
0.492715
0.00063276
0.0006676
0.00063276
0.000663521
0.00368213
0.00055967
0.000664702
0.00063276
0.658089
0.00063276
0.00063276
0.00063276
0.00063276
0.000632761
0.000632761
0.189689
0.00063276
0.000632383
0.594074
0.000667695
0.00063276
0.000632465
0.00063276
0.656727
0.000677081
0.536264
0.00063276
0.432782
0.391562
0.000670053
0.000632761
0.000661715
0.00063276
0.000676459
0.00063276
0.00063276
0.000672502
3.46487
0.48424
0.00063276
0.000621078
0.000632734
0.409103
0.000632759
0.00063276
0.00063276
0.00063276
0.000632761
0.000632761
0.00063276
0.00063276
0.00063276
0.00063276
0.00063276
0.00063276
0.487087
0.000632753
0.136765
0.00063276
0.00063276
0.00066969
0.00145369
0.00063276
0.00063276
0.000672884
0.00063276
0.000632241
0.000632761
0.000677189
0.652943
0.00063276
0.00063276
0.00063276
0.00063274
0.00063276
0.000632561
0.00063276
0.00063276
0.376781
0.00063276
0.0180318
0.00063276
0.00063276
0.000632711
0.000632657
0.000664557
0.00063276
0.00063276
0.00063276
0.00063276
0.157746
0.00063276
0.00063276
0.528592
0.000632725
0.493677
0.00063276
0.000627589
0.00063276
0.00063276
0.668879
0.000630289
0.000632761
0.00063276
0.000633391
0.000661304
0.00063276
0.00063276
0.00063276
0.00063276
0.00063276
0.486401
0.166219
0.503937
0.00063276
0.540521
0.00063276
0.00063276
0.000632761
0.000632457
0.000648498
0.00063276
0.00063276
0.00063276
0.00063276
0.000632434
0.00063276
0.00063276
0.000632761
0.000632755
0.000747948
0.000668462
0.00063276
0.12707
0.104471
0.00063276
0.000631468
0.107428
0.00063276
0.00063276
0.00063276
0.380595
0.00063276
0.00063276
0.472486
0.000671372
0.00063276
0.00063276
0.00063276
0.00063276
0.000648262
0.127585
0.00063276
0.00063276
0.418473
0.00063276
0.00063276
0.16557
0.00063276
0.00063276
0.000632761
0.00063276
0.481964
0.00063276
0.000632761
0.00063276
0.000632761
0.000665383
0.00063276
0.417975
0.000669505
0.000628372
0.00063276
0.00063276
0.00063276
0.00063276
0.00063276
0.00063276
0.13535
0.111626
0.000660411
0.000723952
0.00063276
0.000664599
0.00063276
0.00063276
0.00063276
0.00063276
0.00063276
0.00063276
0.00063276
0.00063276
0.00063276
0.00063276
0.0243291
0.00063276
0.688306
0.00063276
0.573756
0.556994
0.00063276
0.000666154
0.562125
0.0130881
0.000997578
0.000665325
0.00063276
0.000632761
0.00063276
0.000632761
0.0283958
0.000632761
0.114514
0.00652188
0.00148928
0.00219746
0.000648669
0.000628295
0.00063276
0.00063163
14.5119
0.00063276
0.000272883
0.000630861
0.00063276
0.00063276
0.00063276
0.000628347
0.00063276
0.519195
0.000670763
0.482976
0.366291
0.585529
0.000666771
0.00063276
0.00063276
0.00063276
0.00063276
0.00063276
0.00063276
0.00063276
0.00063276
0.0570473
0.000676029
0.00063276
0.00415759
0.00063276
0.00063276
0.000632616
0.00063276
0.0236568
0.165786
0.00063276
0.00063276
0.00063276
0.511856
0.0910065
0.00063276
0.000630768
0.542168
0.0264829
0.000632758
0.000632755
0.0115292
0.580362
0.00063276
0.00063276
0.00063276
0.000632746
0.000633625
0.000632702
0.383825
0.000632761
0.00063276
0.00063276
0.00063276
0.000632692
0.00119365
0.00063276
0.00063276
0.137688
0.113386
0.46622
0.00063276
0.000633442
0.000610779
0.00063276
0.000632761
0.00063276
0.673563
0.000630335
0.00063276
0.000657566
0.000638462
0.00063276
0.000632676
0.000630251
0.00063276
0.00063276
0.000632761
0.00063276
0.00061981
0.000632754
0.00063269
0.000631438
0.00134516
0.000651283
0.000645717
0.000629715
0.00063276
0.000641264
0.367428
0.00063276
0.640962
0.296396
0.000634757
0.000630771
0.000635355
0.000630803
0.00063276
0.0649805
0.471674
0.00063175
0.00063276
0.00063276
0.00063276
0.00063276
0.00063276
0.000632747
0.00063276
0.152027
0.00063276
0.00063276
0.000723817
0.00063276
0.000632747
0.00227509
0.0969747
0.000632481
0.000632187
0.00063276
0.151265
0.0006298
0.472759
0.000632748
0.00063276
0.000632617
0.0184824
0.000699915
0.00066643
0.000631994
0.0110591
0.00063276
0.00162251
0.000631905
0.00063276
0.139558
0.000681783
0.000632755
0.000893451
0.00063276
0.00063276
0.114521
0.000747641
0.000631449
0.00063276
0.00063276
0.00063276
0.00063276
0.000631905
0.000631632
0.000631007
0.00063276
0.00063276
0.000634795
0.00063276
0.00063276
0.000519695
0.00063276
0.000631515
0.000629169
0.00063276
0.00063276
0.00063058
0.000640955
0.000631134
0.00347361
0.00063276
0.00063368
0.132878
0.000686381
0.000568673
0.000631637
0.612167
0.00063276
0.00063276
0.000632465
0.104066
0.000665948
0.00063276
0.0084311
0.462719
0.000635386
0.0230133
0.00063276
0.0494417
0.21856
0.000630067
0.00063276
0.00063276
0.000630289
0.00063276
0.000632761
0.151136
0.000631955
0.000628806
0.00063046
0.000671076
0.000645971
0.00063276
0.00063276
0.000630775
0.240839
0.000632761
0.00063219
0.00063276
0.170508
0.000632759
0.18723
0.0191987
0.000631844
0.161208
0.205379
0.00927465
0.000630751
0.000633124
0.0797695
0.000632243
0.557967
0.000631737
0.000630719
0.000659817
0.00063276
0.000630575
0.00063276
0.000632064
0.000665925
0.00063092
0.483421
0.000630944
0.000667298
0.589099
0.239455
0.00063276
0.000635499
0.000671122
0.5936
0.178805
0.000632759
0.000630477
0.193207
0.000657213
0.000671706
0.00063276
0.587609
0.00063276
0.000661434
1.43484
0.000666973
0.000632761
0.471461
0.0178157
0.00063276
0.000622067
0.00063276
0.00063276
0.00063276
0.00063276
0.143104
0.00066487
0.00063276
0.109507
0.371637
0.000632756
0.000632449
0.0242228
0.00063276
0.00063276
0.000632631
0.000636134
0.00063098
0.00063276
0.000632666
0.00063276
53.1336
0.173022
0.000631568
0.484969
0.27376
0.000843431
0.000690091
0.000632157
0.266176
0.000629661
0.0228662
0.000617574
0.000627472
0.000673862
0.00063354
0.00063276
0.000632354
0.000632719
0.466183
0.000632761
0.000632289
0.00063276
0.000672267
0.000646357
0.0979658
0.0978226
0.00067175
0.00063276
0.000651798
0.441352
0.00063276
0.00063276
0.256865
0.0146539
0.000632761
0.625801
0.000632758
0.000630604
0.000631896
0.6294
0.000632699
0.00063276
0.000632187
0.0101515
0.000668847
0.000632644
0.00066506
0.00063276
0.000632743
0.0864058
0.00063276
0.501342
0.447087
0.00063268
0.00160885
0.00063276
0.112321
0.00961688
0.00063276
0.000681786
0.00744486
0.00063276
0.00063276
0.000632746
0.141194
0.00063276
0.000631737
0.00063276
0.000677198
0.000631767
0.000632052
0.000632405
0.00063276
0.00063276
0.00063276
0.00063276
0.00063276
0.000632727
0.00063276
0.00063276
0.000637386
0.000632465
0.00063276
0.000513278
0.000631611
0.00063276
0.00063276
0.000632072
0.00063276
0.000674353
0.000640477
0.00063276
0.000632621
0.000632048
0.00063159
0.032714
0.0208681
0.000674698
0.405934
0.000628634
0.00063276
0.00063276
0.000635017
0.000640477
0.000670061
0.63131
0.000632626
0.00063276
0.0165934
0.000670771
0.00304026
0.000664715
0.000680912
0.000660027
0.00063276
0.000544369
0.00063276
0.000632761
0.00066663
0.000640399
0.162792
0.371937
0.000644594
0.000667129
0.000664244
0.000692716
0.00063276
0.00026218
0.000641757
0.000665697
0.00182862
0.00063276
0.00203481
0.00063276
0.000631167
0.000632761
0.000656722
0.00063276
0.000675786
0.00063276
0.00063276
0.000672008
0.000631817
0.160481
0.000631659
0.00063276
0.00063276
0.000631147
0.00063276
0.00063276
0.014512
0.00063276
0.000634553
0.000632761
0.00063276
0.000632759
0.00063276
0.00063276
0.00063276
0.000640566
0.00063276
0.000645922
0.20305
0.000632396
0.00063276
0.000632756
0.00063276
0.00063276
0.00063276
0.000633749
0.00063276
0.00063276
0.00063276
0.000669852
0.385434
0.00063276
0.000632761
0.00063276
0.000194245
0.00063276
0.00063276
0.00063276
0.00063276
0.00063276
0.574225
0.00063276
0.00063276
0.00063276
0.00239334
0.000632758
0.000632751
0.00063276
0.567546
0.000631934
0.000631947
0.000630838
0.00063276
0.000631577
0.000632761
0.000631601
0.00063276
0.00063276
0.000632733
0.000940328
0.000666848
0.000632746
0.000651684
0.000633912
0.000635667
0.00063276
0.000627453
0.000631205
0.00066437
0.000632751
0.000628445
0.000632478
0.00063276
0.000632761
0.000632726
0.00063276
0.000632555
0.000641977
0.00063276
0.00063276
0.000632755
0.000632756
0.000632112
0.0433009
0.00063276
0.000683932
0.000633143
0.00063276
0.000631838
0.19407
0.000631652
0.000631584
0.00063276
0.000632741
0.461563
0.00063276
0.000644104
0.00063276
0.00063194
0.00063276
0.608659
0.000665753
0.00063276
0.00063276
0.00063276
0.00063276
0.000631594
0.000632761
0.000630016
0.00063276
0.000630607
0.000630325
0.000669829
0.00063276
0.183247
0.632165
0.00063276
0.0528048
0.0550429
0.000666803
0.000632651
0.00063276
0.54295
0.000631969
0.0362701
0.0670806
0.00063276
0.00063276
0.000685422
0.00063276
0.000631255
0.00063276
0.00063276
0.000672512
0.000773436
0.00063276
0.00063276
0.000277709
0.00063276
0.00063276
0.00063276
0.00063276
0.283261
0.578193
0.000667377
0.00063276
0.00063276
0.00063276
0.000632276
0.00063084
0.0404268
0.00209703
0.000671457
0.00063276
0.00063276
0.00063276
0.00063276
0.000537395
0.00050662
0.00063276
0.00063276
0.00063276
0.00063276
0.480913
0.00063276
0.539025
0.00063276
0.56428
0.000672944
0.000631451
0.00063276
0.00063276
0.00063276
0.000632761
0.000632761
0.000632761
0.00063276
0.462779
0.00063276
0.000631105
0.159558
0.000631504
0.00063276
0.00063276
0.000632761
0.00063276
0.000631834
0.000629162
0.00063276
0.00063276
0.00063276
0.59327
0.000629927
0.000713058
0.000616839
0.000635992
0.511623
0.000665728
0.0140749
0.000632737
0.452408
0.000632761
0.00063276
0.000673025
0.151327
0.0743937
0.000682744
0.000632598
0.509694
0.00766899
0.00063276
0.00063276
0.000631635
0.000632761
0.00063276
0.00063276
0.000663648
0.0268317
0.000632761
0.000635733
0.00782317
0.00063276
0.00063276
0.00063276
0.00063276
0.00063276
0.00063276
0.000632761
0.000673303
0.000632172
0.000632087
0.000631137
0.0114881
0.000632233
0.000630911
0.545165
0.000632737
0.000670945
0.000630922
0.000631236
0.000671126
0.00067553
0.000630976
0.672042
0.000632265
0.000618992
0.00063276
0.00063276
0.000630915
0.000632754
0.000632757
0.00063276
0.00063276
0.000675317
0.000632761
0.000632721
0.000632729
0.00063276
0.000632755
0.00063273
0.000632756
0.000632497
0.614235
0.00063276
0.000630783
0.00063276
0.000632705
0.000632761
0.00063276
0.132664
0.000632424
0.000632662
0.405964
0.000631416
0.00063276
0.00063276
0.000631072
0.000726328
0.0442524
0.000631268
0.00063276
0.000628652
0.00063276
0.00063276
0.00063276
0.00906415
0.00063276
0.00063276
0.00063276
0.000520545
0.000663996
0.00063276
0.000671779
0.00063276
0.624759
0.000665525
0.00063276
0.000631042
0.000632761
0.00063276
0.000632759
0.00063276
0.00063276
0.00063276
0.000675413
0.00063276
0.00063276
0.000631693
0.624636
0.000629873
0.000632761
0.000631777
0.000680898
0.00063191
0.00871625
0.446443
0.00350634
0.000631832
0.000631986
0.000674651
0.00063276
0.000631553
0.000632761
0.0046683
0.393121
0.000673269
0.495738
0.721676
0.00063276
0.000632761
0.790084
0.00063276
0.00063276
0.0721407
0.000665943
0.00063276
0.00063276
0.000632157
0.00063276
0.00063276
0.00063276
0.00063276
0.00063276
0.623461
0.00063276
0.00063276
0.00063276
0.00063276
0.00063276
0.239202
0.215376
0.000675034
0.00063276
0.000668133
0.000685237
0.00063276
0.00063276
0.00063276
0.000794407
0.491789
0.00676145
0.00063276
0.000429915
0.00063276
0.00063276
0.219402
0.413078
0.00063276
0.000632488
0.00063276
0.00063276
0.00063276
0.00063276
0.00063276
0.00063276
0.000631148
0.0233564
0.699776
0.00063276
0.00063276
0.000349682
0.00063276
0.000639468
0.00063276
0.000666683
0.00063276
0.00063276
0.00063276
0.00062393
0.112023
0.000632405
0.000632327
0.00063276
0.00063276
0.000632298
0.00063276
0.816665
0.000664073
0.00064025
0.436729
0.00063276
0.00063378
0.00063276
0.00063276
0.00063276
0.00063276
0.00063276
0.00063276
0.587388
0.00063276
0.000739481
0.00063276
0.000632113
0.000632748
5.90461
0.00063276
0.00063276
0.0980784
0.576896
0.00063276
0.00063276
0.00063276
0.00063276
0.000639209
0.00063276
0.575966
0.000632563
0.00063276
0.000634132
0.00063086
0.000632725
0.000631982
0.00063276
0.000631536
0.00063276
0.00063276
0.000633872
0.000632734
0.00063276
0.000659451
0.00063276
0.00063276
0.00063276
0.000632761
0.000632093
0.000707412
0.00063276
0.000632042
0.000627384
0.000641859
0.0597527
0.00063276
0.00063276
0.0204579
0.00063276
0.000632759
0.00715144
0.00063276
0.0288631
0.0228757
0.00287664
0.541924
0.00063276
0.00063276
0.00063276
0.00063276
0.000632759
0.482636
0.00063276
0.462294
0.00063276
0.000524177
0.000758094
0.00063276
0.00259618
0.00063276
0.000632759
0.000632692
0.0144662
0.674618
0.00063276
0.151887
0.000632721
0.00063276
0.00063276
0.000632683
0.000632755
0.00063276
0.000650061
0.497697
0.000631991
0.00063276
0.000632188
0.00063276
0.000636339
0.00063276
0.000636469
0.00063276
0.00063276
0.000632669
0.00066514
0.00063276
0.000632538
0.000635148
0.000632748
0.000632726
0.00063276
0.000635993
0.000632743
0.00063276
0.00063276
0.00755601
0.000632761
0.00063276
0.000632761
0.000630984
0.00066734
0.00382594
0.00066504
0.000631321
0.000139478
0.00063276
0.0006327
0.000632363
0.000631843
0.00063276
0.00063276
0.000634833
0.000651319
0.042032
0.00063276
0.00063276
0.522656
0.480017
0.000639896
0.00063276
0.00063276
0.00427225
0.0164863
0.000699016
0.00063775
0.0217523
0.00063276
0.000632662
0.000628595
0.00063276
0.00063276
0.000668016
0.000634977
0.000630267
0.016447
0.537473
0.000673634
0.00063276
0.0366748
0.000636381
0.00063276
0.00063276
0.000649169
0.000631956
0.00063276
0.00063276
0.00063276
0.000631874
0.000632509
0.000631803
0.111588
0.00063276
0.00063276
0.00063276
0.00063276
0.000659329
0.00196973
0.00063276
0.000632761
0.00063276
0.000464555
0.000635715
0.00063276
0.000632742
0.000632663
0.00063276
0.000631395
0.00063276
0.00063276
0.000647623
0.0006319
0.0158771
0.00063276
0.00063156
0.00063276
0.000631488
0.000631443
0.000639338
0.00063276
0.000631969
0.000630739
0.00063276
0.00063276
0.00063276
0.00063276
0.000632077
0.000631721
0.000631409
0.000654314
0.000635723
0.000621597
0.000668148
0.000462593
0.000669143
0.000680104
0.00063276
0.00063276
0.0006687
0.00063276
0.000662956
0.00063276
0.000632576
0.000632753
0.000665655
0.00063276
0.00063142
0.000677388
0.00063276
0.00063276
0.000632758
0.00063276
0.000632753
0.00063276
0.376267
0.00063276
0.00063276
0.000633616
0.00063276
0.000633974
0.000636579
0.504285
0.000632916
0.495913
0.000635043
0.548304
0.00063276
0.00063276
0.00063276
0.43963
0.00063276
0.000449798
0.00063276
0.000632488
0.00063276
0.00063276
0.00063276
0.00063276
0.00063276
0.00063262
0.00063276
0.579928
0.00063276
0.00063276
0.000630393
0.000632026
0.00063276
1.02378e-05
0.418852
0.00063276
0.00063276
0.00063276
0.717312
0.000491424
0.000635127
0.00063599
0.000640458
0.00063276
0.00063276
0.00063276
0.000632684
0.00063276
0.00063276
0.000664553
0.00063276
0.00063276
0.00063276
0.000632255
0.00063276
0.00063276
0.000632759
0.000632761
0.000633946
0.000699696
0.000635052
0.000846674
0.0251566
0.00063276
0.00063276
0.000656819
0.0006327
0.00063276
0.000630202
0.000670392
0.00063276
0.00063276
0.000676166
0.173474
0.0667285
0.00063276
0.00063276
0.000668008
0.000775621
0.00063276
0.00063276
0.00063276
0.000686536
0.000630156
0.000631402
0.000685176
0.00063276
0.000632761
0.00063276
0.00063276
0.00063276
0.00063276
0.00063276
0.00063276
0.00063276
0.00063276
0.00063276
0.00063276
0.00063276
0.000630542
0.00063276
0.00300049
0.000630387
0.000440811
0.000631023
0.502524
0.543456
0.000633343
0.00063108
0.00063276
0.000632654
0.000632758
0.12981
0.254409
0.429593
0.000631464
0.000559978
0.00424677
0.000630639
0.000629469
0.000666947
0.000631383
0.000631694
0.000725735
0.000852358
0.000630942
0.00063276
0.00063276
0.00063269
0.000632709
0.462935
0.000630711
0.000705651
0.000630756
0.000631396
0.000632749
0.00063276
0.00063276
0.000631241
0.000632491
0.000632678
0.00063276
0.723585
0.000631729
0.00063276
0.00063276
0.000632731
0.00063276
0.00063276
0.00063276
0.507836
0.000632761
0.00063276
0.00063276
0.000634294
0.000632222
0.00063165
0.000631559
0.00063276
0.000633126
0.00063276
0.000632747
0.00063276
0.000631165
0.0451431
0.16576
0.000632759
0.000634388
0.00063276
0.00063276
0.000630346
0.862959
0.00433508
0.000942503
0.660534
0.00063276
0.000619394
0.00063276
0.00063276
0.00063276
0.000632295
0.00063276
0.000655626
0.00063276
0.186267
0.000630452
0.000632759
0.00063276
0.000658077
0.000632125
0.58712
0.00063276
0.000715663
0.00063276
0.000632564
0.000630173
0.00063276
0.00063276
0.000580363
0.00063276
0.00063276
0.00063276
0.000732062
0.000621603
0.00063276
0.00123719
0.00063276
0.00063276
0.00063276
0.000632761
0.00063276
0.00063276
0.00063276
0.00063276
0.00063276
0.00063276
0.000759164
0.000632761
0.000631865
0.000632638
0.000678614
0.000672637
0.157992
0.000623488
0.00063276
0.00063276
0.00063276
0.00291922
0.000629298
0.00063276
0.00063276
0.000611578
0.000631056
0.000631056
0.101808
0.000632526
0.00063276
0.432679
0.449697
0.000631614
0.00063276
0.000632758
0.000632323
0.594722
0.000632756
0.000630029
0.00063276
0.00063276
0.0407893
0.00681091
0.000632053
0.000634529
0.000632633
0.000632746
0.000632479
0.000671091
0.00063276
0.000303161
0.000665145
0.00066298
0.00067363
0.00063276
0.00063276
0.0140945
0.000715248
0.000632761
0.00063276
0.00063276
0.00063276
0.00063276
0.00063276
0.474258
0.028278
0.171436
0.00063276
0.00063276
0.00063276
0.00063276
0.000632431
0.00063276
0.000632761
0.000631389
0.00183566
0.00063276
0.384554
0.471492
0.00063276
0.000632574
0.00063276
0.000340814
0.00063276
0.000631429
0.000631981
0.574591
0.000632759
0.00063276
0.00063276
0.00063276
0.000631866
0.0258289
0.000631889
0.000632747
0.0308625
0.000632845
0.00063276
6.16703
0.00063276
0.000631178
0.00063273
0.00063276
0.913157
0.00063276
0.00063276
0.000632717
0.000632164
0.000632219
0.000632407
0.000677587
0.000632111
0.000632367
0.000632294
0.000630565
0.000632367
0.00063276
0.000631897
0.000632482
0.000679002
0.423071
5.24619
0.000631549
0.000631624
0.000663928
0.00063276
0.000679363
0.631374
0.000630569
0.000671746
0.243044
0.00063276
0.000664806
0.000630984
0.00063276
0.00186651
0.0892524
0.000631396
0.000671267
0.000663791
0.320518
0.00063276
0.00063275
0.000631424
0.000628923
0.000631717
0.00063276
0.000856806
0.000632759
0.00063275
0.000672754
0.10972
82.4553
0.00063276
0.328391
0.00063276
0.328208
0.000632748
0.00063276
0.759679
0.000632657
0.000678843
0.000630519
0.000631076
0.000676026
0.00067164
0.000632208
0.0110243
0.000632717
0.566753
0.00277865
0.000632154
0.000632761
0.000631974
0.171842
0.000637604
0.000631017
0.000632761
0.000632761
0.0006387
0.00063276
0.00063276
0.000633267
0.000631041
0.000663822
0.00063276
0.00063276
0.00063276
0.562801
0.000632759
0.00063276
0.00063276
0.13568
0.000632594
0.00063276
0.000630895
0.000669441
0.00063276
0.000632759
0.000645338
0.000633074
0.000632761
0.00063276
0.655755
0.0017465
0.000632595
0.276994
0.000662604
0.000665
0.00102211
0.00063276
0.000631058
0.000666706
0.00063276
0.000632761
0.000635661
0.000631293
1.35658
0.00063276
0.000630566
0.12436
0.000638071
0.36521
0.000631336
0.000631627
0.000565044
0.000644345
0.363529
0.000639952
0.508288
0.00063276
0.000632761
0.524544
0.00063276
0.00063276
0.480842
0.149312
0.000632738
0.000632434
0.00063276
0.00063276
0.000673743
0.476613
0.00063276
0.0539505
0.00063276
0.00063276
0.145455
0.599289
0.000634828
0.000632096
0.720637
0.000630802
0.000757378
0.000631909
0.000632761
0.00063276
0.000632761
0.00063276
0.000666085
0.000679436
0.00063276
0.00063276
0.00063412
0.0128525
0.000673322
0.000653483
0.477609
0.000438667
0.00066446
0.00143097
0.000632761
0.000640572
0.00066356
0.482378
0.000632761
0.00063276
0.0199277
0.00063276
0.00063276
0.000632748
0.00063276
0.00063276
0.000665844
0.474937
0.000615733
0.00063276
0.000627005
0.000635341
0.000665377
0.00063276
0.00063276
0.00063276
0.00063276
0.123757
0.00063276
0.66673
0.664628
0.000632761
0.00063276
0.000641304
0.000630844
0.914094
0.590184
0.000632761
0.000676745
0.548988
0.00063276
0.00063276
0.000632761
0.000630169
0.00063276
0.00063276
0.00063276
0.00063276
0.000670919
0.000632761
0.000632418
0.000630196
0.000648916
0.00068332
0.000632761
0.503891
0.561352
0.000848305
0.000630699
0.00063276
0.0100203
0.00063276
0.000632761
0.000632761
0.649422
0.00063276
0.000673982
0.580378
0.00063276
0.00063276
0.45313
0.000632761
0.00063276
0.0192993
0.589216
0.000632117
0.596366
0.00063276
0.00063276
0.00063276
0.00063276
0.00063276
0.013408
0.00063276
0.827388
0.000669604
0.00063276
0.00063276
0.0299256
0.000632761
0.440257
0.00066675
0.00063276
0.00063276
0.000632761
0.00063276
0.000663994
0.497945
0.00063276
0.000672541
0.511644
0.00063276
0.00063276
0.000667379
0.000632761
0.00063276
0.000668505
0.000666014
0.00063276
0.000632761
0.000630752
0.458399
0.000671253
0.465359
0.566312
0.000631768
0.599622
0.00063276
0.00063276
0.00063276
0.00063276
0.00063276
0.000631992
0.000632021
0.000632761
0.000667078
0.000633424
0.000670781
0.00063254
0.00063276
0.00939561
0.0345317
0.000663942
0.00283615
0.00063276
0.0242893
0.00063276
0.00063276
0.00063276
0.000632761
0.42499
0.000632761
0.565814
0.00063276
0.00063276
0.00063276
0.00063276
0.000671318