/*--------------------------------*- C++ -*----------------------------------*\
| =========                 |                                                 |
| \\      /  F ield         | OpenFOAM: The Open Source CFD Toolbox           |
|  \\    /   O peration     | Version:  2312                                  |
|   \\  /    A nd           | Website:  www.openfoam.com                      |
|    \\/     M anipulation  |                                                 |
\*---------------------------------------------------------------------------*/
FoamFile
{
    version     2.0;
    format      ascii;
    arch        "LSB;label=32;scalar=64";
    class       surfaceScalarField;
    location    "0.1";
    object      phi;
}
// * * * * * * * * * * * * * * * * * * * * * * * * * * * * * * * * * * * * * //

dimensions      [1 0 -1 0 0 0 0];

oriented        oriented;

internalField   nonuniform List<scalar> 
62453
(
0.00237981
0.0003169
-0.000317795
-0.000307289
13.9229
-0.109017
-10.0032
1.39898
-8.41384e-12
-5.14196e-12
-5.71542e-12
1.23707e-11
1.30624e-11
-8.05549e-11
-6.73422e-11
-2.37482e-11
-1.3058e-11
-9.48869e-12
-5.89464e-12
-2.25894e-11
-3.34887e-11
-4.49063e-11
-5.86814e-11
-6.56232e-11
33.1357
-13.8071
-58.5819
-22.2807
19.2938
-22.0389
-38.97
-9.17822e-11
7.11928e-11
4.32777e-11
-4.77779e-11
6.26215e-11
3.66634e-11
-9.40522e-11
5.87246e-11
9.57244
-66.4949
32.4884
35.6455
-38.6602
8.37096
7.74126e-12
3.76572e-11
-3.48279e-11
-3.16542e-11
-1.21791e-11
3.4942e-11
8.64259e-12
-4.21967e-11
-1.55973e-11
2.40837e-12
1.91135e-12
-0.163132
-0.0542018
0.551095
-0.0809285
-2.22706e-12
1.46861e-11
7.09402e-11
3.06505e-11
2.34765e-11
1.85855e-11
8.99965e-12
5.28325e-11
0.0218174
-0.00448081
0.00709968
-0.00925915
-4.26404e-11
-5.2771e-11
-1.7129e-11
1.12619e-11
6.15217e-11
1.54825e-11
-3.78809e-11
-2.48736e-11
1.18683e-11
-7.26954e-11
-8.22854e-12
9.16314e-12
-2.62022e-11
-3.84085e-11
-1.54084e-11
2.04366e-11
9.42178e-12
8.61294e-11
3.65101e-11
-8.14747e-11
1.9001e-11
-1.41484e-11
4.28158e-12
-1.7923e-13
-5.7952e-11
-3.34366e-12
-9.51695e-11
-5.01887e-12
2.84649e-11
-2.34612e-11
87.4819
17.5326
-102.961
5.74995e-10
6.89854e-12
7.75892e-12
8.42318e-12
11.4069
20.7248
-33.6307
-1.46338e-11
1.99343e-11
-2.50404e-11
24.9035
38.3998
43.8872
-104.673
1.84444e-10
-5.69328e-10
-8.40275e-10
1.30285e-08
13.0649
-20.4091
36.8369
-21.2369
-3.11755e-09
-2.80324e-09
-2.94993e-09
6.61914e-08
8.09e-10
5.75291e-10
-4.44649e-11
-5.19565e-11
1.51212e-06
1.63663e-05
-1.82758e-06
-1.67121e-06
6.57831e-05
2.52929e-05
-3.7521e-06
-1.5558e-05
1.94851e-12
-2.1721e-11
4.08444e-11
-1.96867e-11
-2.0764e-11
2.24854e-11
6.00396e-11
3.09354e-11
5.30376e-11
2.54392e-11
-3.39571e-11
-1.13846e-10
2.79356e-11
-1.72388e-12
-6.36844e-11
4.55919e-11
-0.00642894
-0.0106674
0.0351462
4.91778e-11
2.37542e-11
2.11673e-11
3.67782e-11
56.0082
40.7818
-31.2708
-66.6983
2.77674e-05
-1.60102e-05
9.40016e-05
-1.46415e-05
1.79675e-11
-2.65079e-11
5.6409e-11
-9.15501e-12
-8.39928
76.3549
3.86952
-71.2404
31.3707
-22.0919
31.9171
-6.29408e-11
1.09701e-10
9.40598e-13
-6.79745e-11
-3.01852e-11
2.70651e-10
-2.60631e-11
87.4371
-67.2638
-73.0892
49.9404
4.27006e-12
-1.19237e-11
-3.97747e-11
3.73231e-11
-3.94387
-4.1321
4.5024
3.79629
5.41437e-11
2.71321e-11
-2.28489e-11
3.02041e-12
-22.1572
2.71985
63.2404
-48.9284
4.05469e-13
7.28349e-11
-2.74908e-11
1.57815e-11
2.46326e-11
-2.56777e-11
-1.22838e-06
1.03063e-06
9.08962e-06
7.45369e-14
-3.96881e-11
-3.91117e-11
-4.34755e-11
-3.24613e-11
-3.0028e-11
-2.63985e-05
-4.64558e-05
1.66716e-05
0.000162456
-122.794
12.0103
16.2825
85.8835
-9.02756e-14
-8.92151e-13
-5.20923e-13
-8.06808e-09
5.57982e-08
-9.3727e-09
1.81339e-12
4.22203e-11
1.31826e-11
0.207666
6.89287
-2.90266
-2.56406
4.95384e-11
-3.14714e-11
9.00647e-13
-1.9745e-11
-17.2875
45.2792
8.96687
-35.8267
1.77367e-11
-8.81425e-12
-4.74258e-11
2.63076e-11
3.25353e-11
3.44669e-11
-6.71251e-11
9.84568e-11
3.58744e-11
7.76718e-11
-1.13732e-11
-0.0012065
0.0059571
-0.000375643
0.00062234
-131.477
53.2724
75.8431
-5.62319e-13
5.26824e-11
-3.67573e-11
-5.3804e-11
6.60157e-11
-2.13558e-12
-7.18171e-12
-9.31247
-1.52146
1.36762
9.49416
-3.65742e-11
-5.93255e-11
-1.43323e-11
8.23263e-11
3.06577e-11
-8.29927e-12
2.36004e-11
4.45969e-11
-1.48342e-11
-7.80242e-12
6.31243e-12
1.41081e-11
-3.83763e-11
-5.85951e-11
-9.33355e-11
1.05293e-11
-9.34102e-11
-4.93288e-11
-5.17591e-11
-3.84833e-11
-7.08929
9.20676
-6.99691
5.72779
-60.1599
-1.27625
61.7934
2.67818e-11
3.91677e-12
-2.36254e-12
6.6989e-11
3.00575e-11
4.3717e-11
-4.27884e-11
-5.78035e-11
2.73062e-11
-1.90189e-11
-3.85707e-12
8.98139e-12
8.7214
0.976208
7.17724
-16.8867
2.34675e-11
-2.22536e-11
-5.45876e-11
3.24139e-11
5.73232e-12
-1.29648e-07
2.25804e-06
-2.95055e-07
-1.79429e-07
3.37161e-12
-3.03356e-11
-7.67986e-12
9.2933e-14
2.69096e-11
3.92693e-12
2.86278e-11
9.40399e-11
-2.87931e-11
-3.28088e-11
-2.63312e-11
8.35092e-11
2.3695e-11
-4.659e-11
2.2454e-12
-1.36112e-11
6.56564e-08
-6.35248e-09
-7.03233e-10
-1.3932e-08
-6.16969
0.251521
0.184176
7.0422
-3.67516
32.1126
-27.9941
-2.25965e-11
-2.82797e-11
1.0724e-11
1.97422e-11
7.36374e-11
80.1927
-13.1122
-43.3216
13.8905
8.82993
-17.9018
1.03701
0.000216402
0.00024277
-0.000125778
-4.12119
1.55534
2.65253
1.23334
-3.83724e-11
1.30731e-11
-2.94965e-11
5.17623e-11
9.50057e-12
2.25832e-11
8.81744e-11
-1.40583e-11
243.267
-44.3376
43.3956
-258.916
2.19043e-11
-3.22488e-11
1.54281e-11
-7.41415
-2.5839
10.055
1.45049
-1.47012e-11
5.19482e-11
5.45572e-11
3.45665e-12
5.24427e-11
3.50362e-12
-1.79566e-11
-32.1051
-29.1229
62.6914
4.19614
-6.7241
7.01594
-2.36272
5.51829e-06
1.18032e-06
2.77855e-06
-2.1575e-06
8.77999e-12
1.05103e-12
3.12821e-11
3.19132e-12
-7.98509e-11
-1.01749e-10
-8.72936e-11
6.88542e-11
-110.244
37.2364
-38.3074
103.74
3.82528e-12
7.31194e-11
4.36553e-11
-1.9823e-11
1.28758
-2.58264
3.39638
-1.55193
2.30046e-13
-3.9952e-12
-3.68149e-11
-5.72328e-10
1.44367e-08
-1.08005e-09
-9.5737e-10
5.08738e-09
-9.60363e-10
7.36636e-09
13.441
2.74128
0.0212734
-16.1542
-8.5884e-12
-1.76979e-11
6.89166e-11
2.65065e-11
1.29556e-10
4.72171e-12
5.08994e-11
7.54669
-0.46932
8.22386
-13.3106
0.0699727
-0.0217555
0.0912822
-0.0624901
-0.0652085
0.0176078
0.149736
-0.00946981
0.0124713
-0.0051247
0.0311342
-0.399102
-0.0859323
-0.234549
1.81723
-5.38765
-3.55536
-2.18074
11.9282
-3.00685
-0.208131
3.33228
7.16126e-05
4.09527e-05
-3.11788e-07
-1.75293e-05
0.00427692
-0.00454293
0.00125762
0.00529466
-1.79719e-11
-2.89231e-11
-1.5891e-12
3.52976e-10
1.60025e-10
-1.36738e-11
5.34888e-11
-5.33705e-11
5.19271e-12
-5.59777e-11
-7.85065
5.98456
-5.72995
7.82248
-0.00397761
0.0333028
-0.003759
-0.0047232
3.70249e-11
1.0961e-11
4.2197e-11
-2.57166e-11
-232.633
104.842
-73.1673
67.3915
7.75602e-11
1.06605e-10
1.8495e-11
6.02364e-11
-4.5031e-12
-2.32615e-11
-7.30013e-12
1.81181e-11
7.44267e-11
-9.47743e-11
-7.97995e-12
6.50479e-11
-5.18463
7.54708
-7.39259
6.00541
-1.38655
1.72074
0.150291
-2.257e-12
8.06328e-12
-3.33714e-11
-8.16937e-11
4.73799
25.1584
-25.8471
-4.1049
-0.616952
0.82304
0.78811
-0.349889
5.11369e-13
-2.46514e-11
2.06828e-11
3.60088e-11
-1.97505e-11
-6.11354e-11
-1.35451e-11
4.79265e-11
-1.7431e-11
-5.36566e-11
-3.14472e-11
2.46082e-10
-0.00645763
0.00263376
0.0192644
0.00471824
-5.9686e-11
-9.31853e-13
2.32921e-11
7.69166e-11
-0.0012005
-0.000871332
0.000536834
-1.6504e-11
-4.30789e-11
-3.50817e-11
7.89825e-11
1.0354e-11
-2.80888e-11
2.0936e-12
3.03818e-11
2.18393e-11
-5.31426e-11
2.78476e-11
5.88552e-11
1.30324
1.48656
-2.3112
1.50912
2.61554e-09
1.28401e-09
-1.03588e-11
-1.71324e-10
4.53714e-11
4.95347e-11
3.73997e-11
-1.04546e-10
7.27273e-11
1.06131e-10
9.09624e-12
3.80363e-11
2.09979e-05
-4.4162e-06
3.86981e-06
2.12108e-05
133.829
-26.8595
-118.422
-0.301971
-6.14522
0.804272
5.78525
-6.04358e-05
0.00018156
-8.59989e-05
0.000148321
0.474617
4.66032
0.315944
-5.42776
5.18274e-12
-7.74727e-12
2.57965e-11
-2.005e-11
4.3784e-11
-1.07488e-11
9.91934e-11
8.34461e-13
5.0885
0.588827
-0.196465
-5.46719
-2.06989e-11
-8.27288e-11
5.14302e-12
1.58957e-12
4.37677
-1.71893
4.19558
-5.71293
4.46293e-11
6.81156e-13
4.05286e-11
6.6174e-11
-4.92201e-11
-5.30122e-11
-3.7649e-11
-1.57402e-11
6.82513e-08
9.02155e-08
3.44751e-07
-7.64114e-08
2.68088e-11
3.33295e-11
-3.24598e-11
-1.89339e-12
9.13968e-11
-3.43753e-11
4.23678e-11
-1.27979e-11
-4.95883e-11
1.3655e-11
-5.57239e-11
5.89095e-12
3.58441e-11
-7.98234e-12
7.13949e-11
2.88025e-11
-5.79909e-11
-2.41721e-11
-2.36331e-11
-0.000124454
-0.000287322
0.00129456
-7.89843e-13
-3.69358e-12
-2.7731e-11
-5.30343e-12
-1.59313e-05
-8.0044e-06
0.000109317
-1.13494e-05
2.95773e-11
-1.18234e-10
-6.9627e-11
-7.80005e-12
-3.35947e-11
-5.19917e-11
-3.95365e-11
-2.81011
-3.50177
7.62612
2.50457e-11
-3.29786e-11
5.88828e-11
-3.64594e-11
1.26276e-11
-2.48362e-11
-1.32294e-11
1.33588e-12
2.80684e-11
9.78372e-12
-3.41531e-08
9.94566e-10
1.2625e-07
-2.36708e-08
-1.3603e-11
-1.1621e-11
1.18935e-11
5.11042e-11
-8.89039e-09
3.32999e-08
-2.33568e-09
-1.72628e-11
-1.48178e-11
2.93551e-11
-4.98169e-11
-2.50835e-11
-1.20257e-11
-2.77524e-11
-4.63243e-08
8.78098e-07
-1.33945e-07
-6.56014e-09
5.84665e-08
-9.07702e-09
4.50415e-09
-8.72382
5.36411
3.96891
158.758
-118.367
-142.275
83.3031
-70.5984
-29.5753
70.2787
-1.09616
0.801091
3.57408
-1.40781
-4.92763e-06
0.000141415
-1.20655e-05
-8.93262e-06
2.93371e-11
-2.80323e-11
8.67612e-11
2.96541e-11
5.22945e-11
3.97931e-11
-1.8487e-05
1.55432e-05
-3.44302e-06
6.43938e-05
0.00319923
-0.000793767
-0.000938746
0.00134445
1.41218
0.325961
-0.194367
-0.517097
-2.9425
2.4885
-5.17802
5.65647
-2.11946
-3.40568
2.61431
-6.56787e-11
-3.91481e-13
3.52366e-11
4.08559e-12
3.99074e-12
5.18471e-11
-3.09418e-11
-4.15687e-12
1.04411e-06
-8.14056e-06
3.83674e-05
4.56694e-07
-1.88558e-07
-5.50233e-06
2.73962e-05
4.23293e-05
-1.23163e-05
0.000135158
-5.2314e-05
-0.322644
0.267969
0.422573
0.104072
-22.3987
-14.749
39.0184
5.50617e-11
1.56052e-11
-5.56073e-11
-8.69238e-12
-1.76822e-11
4.18231e-11
-7.63938e-11
-4.96775e-11
-0.000114613
0.000639711
-5.03539e-05
-0.00559429
0.0155264
-0.00097646
0.00214798
-0.00470009
0.142494
-0.047052
-1.42608e-11
-1.39956e-11
2.9344e-11
-1.28279e-11
6.77971e-12
6.32081e-12
-0.00120603
0.000436176
0.00298752
-0.000491717
-7.09877
2.05994
13.551
-8.5196
5.0132e-11
-1.0314e-11
6.48154e-11
-1.82136e-11
-3.66482e-11
1.89445e-11
-7.55239e-11
6.15084e-11
2.17981e-07
7.95247e-08
-3.51333e-08
-3.1146e-08
-1.51542e-11
-1.6116e-11
3.5339e-11
1.52398e-11
-6.37161
3.20228
0.669506
2.53555
1.37278e-11
-2.00064e-11
6.50352e-12
-2.87281e-11
-2.14353e-11
5.43897e-12
-7.33112e-12
12.1812
-0.254975
-15.1228
3.91307
8.16417e-07
-3.95978e-07
-4.53e-07
-2.4731e-12
1.40902e-11
2.00089e-11
114.421
-70.6041
131.777
-177.107
-2.96548e-11
-1.02194e-11
-1.65642e-11
-2.48897e-11
-2.20789e-05
8.64736e-05
-93.6935
53.4852
-90.1083
125.174
-0.000492884
4.70981e-05
0.000216351
0.00237432
-1.15707e-08
5.61475e-08
5.58412e-08
-7.87267e-09
-1.74515e-11
6.20134e-12
2.7469e-12
-1.08594e-11
-1.07846e-10
4.46669e-11
-4.9144e-11
4.23116e-11
1.08143e-11
-1.53774e-11
-2.17083e-11
-5.08731e-12
3.83786e-11
1.66537e-11
1.31803e-11
5.38097e-11
-1.96867e-12
-3.66165e-11
7.12129e-11
2.55966e-12
2.55651e-11
-1.82392e-11
-1.78921
2.98608
1.26498
-0.539853
2.85473e-11
-7.57354e-12
3.21059e-11
-5.13943e-10
2.83653e-08
-3.05707e-10
-1.55175e-09
-1.81573e-11
2.15541e-11
-1.75767e-11
-5.1366e-11
2.65526e-11
4.77683e-11
-3.7289e-11
4.33297
-7.0263
0.627403
-9.05118e-11
2.6224e-11
-3.75046e-12
-3.99954e-11
1.32553e-10
-3.21387e-12
3.38234e-11
-6.68543e-11
-5.40466e-11
2.05754e-12
5.97346e-11
-2.5528e-11
-1.3581e-11
6.24202e-11
8.39975e-12
1.2899e-10
5.82975e-12
-3.58568e-11
-4.26077e-11
-3.4181e-11
1.31608e-11
4.17832e-11
4.51572e-11
-3.01676e-11
-9.02812e-12
3.28706e-11
1.97362e-12
4.96549e-12
7.21514e-11
-1.09211e-10
-1.04259e-11
2.50568e-11
3.90152e-12
-1.78873e-11
1.02829e-11
5.38512e-11
-2.97861e-11
-6.28174e-11
1.66872e-09
-6.64733e-11
-1.77812e-10
-1.87769e-10
2.85367e-13
-1.64173e-11
-3.59314e-11
2.8138e-11
5.29217e-12
-4.11138e-11
-3.07025e-11
-9.91645e-11
2.0835e-13
-2.59741e-11
-1.61554e-11
-4.87762e-11
-5.24062e-11
5.73812e-12
-7.47246e-11
-2.20017e-11
-1.24193e-12
1.62568e-11
1.27562e-10
1.12012e-12
-2.70829e-11
1.42161
-1.25161
2.81102
-2.95611
7.19273e-07
9.39453e-06
-4.17483e-06
2.20918e-05
-3.37309e-07
2.18276e-06
4.50021e-07
-4.70815e-07
2.6893e-11
-5.67476e-12
-1.98278e-11
-1.41621e-11
0.000276509
-7.85294e-05
7.33331e-05
-4.51818e-05
1.17133e-11
-6.54381e-12
-1.71043e-11
-1.63333e-10
-77.8023
-22.7592
71.1837
30.3381
-3.96173
2.19326
-27.1838
28.7027
-1.78444e-12
1.09292e-12
-1.87709e-11
4.26225e-11
0.0103118
-0.00272071
0.00494505
-2.25122
-0.922385
4.91404
14.8922
-31.1691
1.31043
15.6858
4.35856e-12
3.20249e-11
1.36605e-11
-3.38335e-11
3.2456e-11
-5.11576e-11
1.84076e-13
-4.82401e-11
-3.37713e-11
-4.46293e-11
-6.44644e-11
1.07618e-11
45.2134
-78.3704
-27.804
58.6509
-4.75609e-11
-8.66504e-12
7.64821e-12
-1.17996e-11
9.99553e-12
-1.16087e-11
-9.36336
5.41715
8.39061
-4.36623
0.622626
-7.83673
6.26896
-1.56825
4.64326
-1.98495e-11
2.33638e-12
3.295e-11
2.90485e-11
1.9819e-11
-4.87061e-09
2.18152e-08
-4.82321e-10
-2.72388e-10
-9.86896e-12
7.49156e-12
-1.28308e-10
-2.21579e-12
-23.0122
-99.1154
2.79183e-11
-4.45681e-11
-1.49914e-11
-4.44046e-11
1.09908e-11
4.93534e-11
2.40426e-12
-3.72277e-11
-1.20342e-11
-3.12757e-11
5.59043e-12
-1.19981e-12
2.6711e-11
4.51707e-11
-2.68147e-11
-1.32436e-11
8.40791e-11
-2.25091e-11
5.64114e-11
1.75589e-11
2.05337e-11
5.18242e-11
1.12617e-11
3.44776e-12
7.17687e-11
-5.22805e-13
7.94575e-11
6.6479e-11
-2.18457e-13
3.31787e-11
-1.95742e-11
1.30886e-11
1.31526e-11
-1.01277e-11
2.88796e-11
-5.37868e-11
3.33038e-11
3.57876e-11
-1.50809e-11
-3.91938e-11
6.20218e-11
2.31902e-11
5.67466e-12
6.69568e-12
-4.28141e-11
1.09526e-11
4.01511e-11
1.97005e-11
2.20688e-11
-1.14804e-11
2.39452e-11
-3.44677e-12
-1.52555e-11
-1.17531e-11
-1.56971e-11
-7.13052e-11
3.54895e-11
2.05019e-06
-6.7309e-07
-6.44228e-07
-1.9372
-1.92207
-3.11861
6.98833
3.27533e-11
-2.09394e-11
-5.66113e-11
-6.64141e-12
2.61855e-11
-1.72725e-11
7.72189e-11
1.05489e-10
6.37729e-07
186.13
16.4483
17.3339
-218.529
-4.6319e-11
5.53825e-11
1.02966e-10
-1.40476e-11
-7.55072e-11
-7.16879e-11
-7.57507e-11
5.67384e-11
6.60526e-11
-1.33934e-11
-4.10105e-12
1.53827e-11
-4.25081e-06
8.13956e-07
5.74173e-05
-3.50506e-11
-1.00545e-11
-2.55861e-11
2.97675e-11
1.31179e-06
-0.000286483
0.00104981
0.000943939
4.64859e-12
-1.82086e-11
-2.8901e-12
-4.83288e-12
6.37395e-05
-8.86433e-06
1.63851e-07
8.22136e-06
-7.02754e-12
-2.29982e-11
-5.83115e-11
1.97402e-11
-1.09584e-11
-3.82434e-11
-1.46737e-11
5.90494e-11
1.69313e-11
-8.24467e-11
6.5268e-12
-3.78022e-11
2.30581e-11
-1.00618e-10
-1.51208e-11
-1.62064e-11
-1.45464e-11
-3.03139e-11
5.25043e-11
-4.86219e-11
8.06991e-12
-1.7982e-12
1.4199e-11
-1.49673e-11
3.04412e-13
-2.40847e-12
-1.6025e-11
1.01536e-11
-3.30835e-11
1.31131e-11
3.74701e-11
4.60485e-11
-2.56212e-11
5.5638e-11
-2.22989e-11
-0.000215435
-7.76967e-05
0.000298757
0.000995597
-13.3426
20.1099
-9.36781
3.98994
-1.9503e-11
4.93952e-12
-4.73597e-13
-1.94968e-12
-6.94445e-12
3.78475e-11
-3.37983e-11
-1.60095e-12
-1.72799e-11
-3.92514e-11
-3.36062e-12
4.07382e-12
3.00234e-11
1.82428e-11
-3.22737e-11
-2.33955e-11
-1.81141e-11
2.67075e-12
-1.49678e-11
-6.76859e-12
-4.62483e-11
-9.56594e-12
-3.01005e-11
-0.0225751
-0.0111636
-0.00881553
0.171523
13.3084
-13.1511
10.7131
-10.7443
0.0101987
0.0320462
-0.00922409
-2.92317e-11
5.73437e-12
-3.2696e-11
-1.16887e-10
-5.77852e-11
-2.23201e-11
1.74953e-11
1.86514e-11
-8.22398e-14
3.08117e-11
1.82737e-11
1.83995e-11
5.50426e-06
-1.23595e-06
-2.27635e-06
-6.52726e-11
-7.55936e-12
1.06971e-10
-1.42871e-11
9.58657e-06
1.49922e-05
2.07863e-06
-6.86679e-11
-2.46208e-11
1.02506e-11
-6.20075e-11
1.20522e-11
-1.46707e-11
6.39802e-11
-3.29322e-11
-1.06911e-08
5.98919e-07
-2.88574e-08
21.814
94.2366
-36.2291
-86.3241
-3.87852e-11
6.98514e-12
-7.67676e-11
-1.06985e-11
-1.5765e-11
1.08712e-11
-2.10329e-11
2.10152e-11
1.15656e-11
-5.02567e-11
-3.6097e-11
-1.78282e-11
2.99232e-11
-7.90128
-3.54504
-7.65803
21.2449
8.92241e-12
-3.02381e-12
3.22084e-11
-6.09911e-12
3.06971e-11
3.08008e-11
1.4664e-11
1.60573e-11
-32.8463
5.16865
-9.42368e-12
-6.76648e-12
2.69665e-11
-2.29787e-11
-0.00403066
-0.00906568
0.0119779
-6.86447e-11
-6.52393e-11
-1.58658e-11
6.90887e-11
0.000545283
-0.000105141
2.17438e-05
-6.54755e-07
2.03077e-06
-6.05446e-07
-2.40388e-11
-1.04365e-11
1.19461e-11
5.12475e-11
-12.4629
11.7213
0.143247
2.00822
-3.19233e-12
-2.91939e-11
-7.51676e-12
6.87942e-11
0.00145398
-0.000403858
-0.000130193
0.000361871
-6.95794e-11
7.0198e-12
-2.46845e-11
-4.37021e-06
3.55381e-05
-2.1967e-06
3.79412e-08
3.94606e-09
-8.53437e-09
-1.47654e-10
-9.00897e-08
-2.57366e-08
-3.58045e-11
8.89076e-12
1.61696e-11
-3.83077e-11
1.802e-11
-5.07911e-11
1.81354e-11
3.26798e-12
-3.83907e-11
8.63642e-12
3.84908e-11
9.09962e-11
6.44125e-11
-5.31628e-11
-4.62466e-11
-4.64009e-11
1.48547e-12
8.68713e-12
-1.2238e-12
-4.68565e-11
-6.72431e-11
-4.49325e-11
-7.24582e-11
2.79171e-11
2.3977e-10
-3.87675e-11
3.44342e-11
5.18012e-11
-1.67718e-11
-4.47472e-11
3.89322e-12
3.17297e-11
2.22922e-11
-2.08674e-11
-0.0172271
0.115252
0.00897168
3.05775e-11
1.93844e-11
-1.90845e-11
-1.43692e-11
-0.000122961
-0.000661968
0.0017964
0.00254513
-1.82674e-05
9.46057e-05
8.99349e-06
-4.86099e-06
-1.91975e-06
-1.26061
0.246713
1.43177
0.248431
4.82682
-2.39335
-2.43088
4.61155e-11
4.75556e-11
-3.5171e-11
3.96918e-11
-0.000110578
0.000631186
4.22542e-06
-4.78004e-05
-6.05108
6.5585
-5.34856
8.67178
2.14575
-4.34203
-7.76478
10.0055
0.0103049
1.9331
-0.168363
-0.411653
4.8354e-10
-2.67999e-10
3.94132e-09
-3.94742e-10
0.000309049
-0.000243127
-0.000269062
0.00208328
-1.19389e-10
-2.96826e-11
-6.75824e-11
1.86935e-09
-1.70135e-09
1.26863e-08
-2.24927e-09
-0.00134338
0.00188136
0.00201378
2.73619e-11
-2.34835e-11
2.84632e-11
-1.38133e-10
5.78157e-12
1.54619e-11
-0.00534544
-0.00200298
5.09581e-11
5.59851e-11
-6.71222e-12
-4.89266e-12
0.000504306
-4.79771e-05
0.000204642
-0.000130846
0.000458759
-4.30049e-05
-3.98415e-05
0.00388354
-0.000599439
-0.000124445
1.30248e-05
-0.00256163
0.0421842
-0.0286075
0.0338736
-0.671355
59.3334
77.696
17.9149
-0.0338532
0.14596
-0.0415065
0.0315285
-3.3055e-08
5.85183e-07
-3.4625e-08
1.92277e-11
4.21466e-11
2.87654e-11
6.22141e-12
-2.27972e-11
-3.90556e-11
-7.51124e-11
-5.96192
-28.1963
3.43495e-11
-2.12332e-11
-4.87022e-11
-2.67914e-11
-5.39747e-12
-2.06503e-11
-1.28889e-11
3.88439e-14
-3.44219e-12
1.85647e-13
7.16204e-12
1.51395
0.805607
3.9597
-2.00735
-1.52554e-11
-8.84985e-11
-4.49702e-11
2.47832e-12
0.000152077
0.000938782
-9.8495e-05
-0.000132154
1.41021e-10
4.49905e-11
-3.21517e-11
7.62858e-11
3.58662e-11
-1.78356e-11
-1.19019e-11
4.44027e-11
2.19219e-09
1.71384e-10
-3.6695e-10
-8.5728e-11
1.21907e-10
-1.00908e-11
5.59601e-11
3.50774e-12
2.52602e-11
3.05091e-11
2.69765e-05
-0.000371134
0.000173992
0.00125072
75.9097
-113.728
16.1366
41.0287
-82.2032
3.66853
1.79101
-3.73489e-13
-2.30805e-11
-5.25924e-12
3.34743e-11
3.12104e-11
-2.5219e-11
3.63034e-11
-25.5378
23.9933
-50.3496
53.344
-1.52577e-06
6.59523e-06
1.40554e-05
-1.50607e-06
6.84182e-13
-3.71346e-11
-4.01953e-11
-2.72394e-12
1.34929e-11
3.56907e-11
-3.31189e-11
3.36119e-05
0.000279331
-4.48207e-05
-4.02413e-06
-3.67107e-11
1.3605e-12
-7.31413e-11
1.95387e-11
-3.57425e-11
-5.3379e-11
-1.76972e-12
8.30475e-11
-6.84058e-11
1.02385e-11
-9.65395e-11
-6.70444e-12
-29.1328
-7.34264
4.3705
36.8247
1.75364e-11
-2.25031e-12
-3.39613e-12
-1.75978e-09
7.08246e-09
-7.55368e-10
1.71013e-08
0.0575051
-0.0547281
0.0703483
-16.6412
-5.41035
-7.83825
29.8795
-1.17973e-12
-5.86464e-11
1.70081e-11
-8.55604e-09
5.16794e-08
-2.64964e-09
-5.96256e-09
4.84818e-05
-0.000166977
-0.000170395
0.00116787
1.08029e-10
1.91821e-11
-7.05782e-13
4.64584e-11
-0.268188
-0.229903
0.369594
0.480361
-3.01608e-05
0.000113463
1.1773e-06
-4.36599e-11
2.57858e-11
1.25699e-11
2.60544e-11
-3.55678e-11
2.29181e-12
7.46788e-11
-7.71636e-11
-4.93101e-11
-2.83719e-11
1.00731e-11
-2.24106e-11
-2.77697e-11
-3.86642e-11
6.87803e-11
4.40116e-11
7.79272e-12
-1.65137e-11
2.69583
0.304867
-0.572318
-0.901729
1.61011e-11
-4.89033e-11
-2.77488e-11
5.14012e-11
8.36175e-12
9.89688e-13
1.29499e-11
-2.45054e-11
1.87009e-11
10.2539
8.35421
2.38491
-14.5714
-8.68006e-12
-1.79631e-11
-1.20201e-11
2.58086e-11
-3.83194e-11
4.24084e-11
6.0552e-11
-1.83426e-11
6.5765e-12
1.31507e-11
-2.45998e-11
8.69173e-12
1.88533e-11
-2.12973e-11
0.00108508
-0.000125167
-0.000108541
-4.78054e-05
-3.07994e-11
6.24221e-12
-1.02676e-11
-3.24715e-11
4.943e-12
-2.59843e-11
9.00251e-12
4.26306e-11
-3.88144e-11
-1.70167e-11
-4.06091e-11
-2.50942e-11
-4.99788e-12
-7.99545e-11
8.16846e-13
3.92386e-11
3.21253e-11
2.89469e-11
-1.6839e-11
6.47387e-11
-1.48766e-11
-2.75316e-11
2.1762e-11
-3.36165e-05
5.52656e-05
0.000967548
-0.000229784
26.6345
-58.0219
-64.5127
92.5587
1.14763e-11
2.28593e-12
3.51766e-11
-5.03344e-12
-8.85662e-11
2.29185e-11
-7.32344e-12
-4.86867e-11
-2.77622e-11
-10.4801
-5.58646
16.605
5.15327
-1.10734e-11
-3.80832e-11
3.67818e-11
-1.73267e-12
4.93885e-08
-2.38251e-09
-1.01998e-09
-1.00759e-08
6.03219
7.959
-26.3995
18.3667
-1.24757e-11
2.7771e-11
9.46205e-11
-4.17603
-1.37537
10.6677
0.832601
-4.40272e-09
2.96096e-08
1.11589e-07
2.23114e-11
-3.19657e-11
-1.91873e-11
2.32556e-11
3.88028e-11
2.8525e-11
6.00327e-12
-9.00529e-12
6.39315e-11
-4.65683
24.6283
-2.83217
-15.3498
2.72422e-11
-6.93532e-11
3.88972e-10
2.28558e-11
3.1881e-11
-8.82461e-12
-1.26022e-11
2.16266e-11
15.7644
-1.80515
-2.00827
-11.849
-2.13834
-0.00218082
2.52365
1.2713
-6.886e-12
6.33366e-12
8.07388e-11
5.08857e-10
-1.29398e-10
-1.4926e-11
9.89282e-10
4.24068e-11
-2.2526e-11
-3.63926e-12
-5.98621e-12
3.85805e-11
4.86116e-11
-8.44512e-12
-2.9537e-11
-8.68638e-12
-3.88683e-11
3.17776e-12
2.6923
12.8211
-13.3035
-2.09286
-3.27178e-07
7.65515e-06
-4.96539e-12
1.05644e-10
8.50672e-11
2.5771e-11
-6.02578e-12
-2.71033e-11
4.12725e-11
4.92359e-11
-1.0555e-10
-7.25946e-11
8.08302e-10
-1.3135e-06
8.30677e-12
7.81209e-11
5.60604e-11
3.3721e-11
2.5466e-11
2.56861e-11
3.41251e-11
1.69392e-11
-1.1845e-07
-2.3631e-07
0.00115085
0.00195664
-0.000782905
-0.000483888
-19.4669
12.6111
2.74484
4.32297
12.1036
-34.5169
-33.9767
62.4463
4.41693
-71.6491
18.5562
-1.78105
-20.0327
4.82322
-5.04307
-1.50157
1.79722
1.69236
-7.47629
5.90239
-0.0423485
-13.9542
17.5929
-20.2082
4.7914e-11
4.53833e-11
-2.85552e-11
-0.000121182
0.000478662
4.89174e-05
-2.86483e-11
-1.9965e-11
9.8077e-12
-5.2715e-11
-5.64273e-05
9.34668e-05
-7.81343e-05
4.09641e-11
7.78241e-11
-7.20487e-11
-46.6854
-25.3062
70.649
-1.06802e-10
-1.73598e-11
-1.29301e-11
-19.0001
11.1585
17.3821
-7.96897
-0.107871
-0.0354935
0.0339208
6.96028e-11
-7.17728e-11
-4.58099e-11
-5.0097e-12
3.77746e-11
1.59211e-11
1.67019e-11
7.26176e-11
-3.68501
107.602
-100.158
4.66794e-12
-8.26784e-12
3.7659e-11
4.0748e-11
23.1896
49.119
-205.412
60.787
155.305
-23.7968
0.0773832
0.154709
0.0010944
-0.0593184
2.21946
3.22215
-0.75095
-4.67653
-8.16359
0.138513
1.79789
10.8523
-5.66701
-1.72969
9.44406
-1.88668
-9.30694e-12
-1.83525e-12
-3.17002e-11
4.85577e-11
-4.91233e-11
1.27458e-11
2.47585e-12
-6.87913e-11
0.0225315
-0.00443404
-0.0319165
0.154982
-3.33421e-11
1.66859e-11
-3.99278e-11
-3.89903
10.4065
-0.304892
-6.15921
7.65776e-11
-7.1983e-12
6.86422e-11
4.74988e-11
4.96368e-11
7.22292e-12
4.01922e-11
2.79249e-11
1.4166e-08
-8.74133e-10
7.6619e-10
-6.3624e-10
13.3219
-109.542
92.5574
5.1806e-11
-5.4983e-12
-1.1299e-11
5.28095e-10
-3.79683e-11
4.20771e-11
-3.59295e-11
0.000311482
0.000538642
-2.27779e-12
1.31764e-11
4.84472e-11
2.82223e-11
-1.02376e-11
-2.74622e-11
1.2833e-11
45.1609
110.108
-95.839
-65.8634
10.5977
211.471
-112.466
-117.159
1.25213e-11
5.02388e-11
4.3946e-11
-8.08673e-12
7.36789e-12
-9.25278e-12
1.3729e-11
-8.84211e-12
-0.173787
-0.278701
-0.0384177
0.859837
6.36362e-06
-1.07417e-06
1.12895e-06
105.58
-54.8147
1.88851e-12
8.50521e-11
-3.15755e-11
-0.00068978
-0.000140894
0.000435285
-6.78668e-11
3.11383e-11
5.66375e-12
-1.04659e-12
4.42129e-11
-2.1112e-11
8.01791e-11
6.97862e-12
-9.2779
-21.1702
-27.3387
56.1147
1.14244e-11
1.32464e-11
-2.9961e-11
-2.32298e-08
-1.22326e-08
3.73863e-07
-38.1031
-70.3963
101.093
3.327e-11
2.38559e-11
-8.42451e-12
1.98449e-11
2.04959e-11
-38.3461
14.5456
6.78611
18.0186
2.12776e-09
1.2967e-08
-2.94204e-09
-3.1883e-05
8.02325e-05
-4.68417e-05
0.000205386
-18.6235
-24.6223
142.505
-104.195
-1.88895e-11
-1.10331e-11
-2.04361e-10
3.07412e-11
-6.12106e-11
-2.33061e-11
1.63621e-11
-6.27853e-11
9.24345e-12
2.54024e-11
-1.34964e-11
5.00758e-11
3.51922
7.05748
-9.53147
-0.165285
1.41986e-11
-8.64954e-11
-3.37247e-12
-5.8842e-12
3.03556e-11
3.83348e-11
5.84697e-12
-1.05736e-10
1.92879e-11
-1.46017e-10
1.18181e-09
-4.73096e-11
-6.27523e-11
1.25212e-09
-1.50188e-10
3.53252e-09
-8.49013e-10
-0.00509512
0.00114132
-5.14053e-12
-2.24291e-11
5.39469e-11
3.94335e-11
-6.92171e-12
2.67302e-12
-1.08325e-11
4.45244e-12
3.23004e-11
2.71776e-06
-3.44337e-06
-3.79942e-08
74.2923
-40.313
-46.0142
3.96848e-12
-2.88371e-11
4.23198e-11
-2.76625e-12
-0.0118154
0.0629039
-0.0090786
21.069
-93.8489
67.8552
-0.00109467
0.00119056
2.41173e-12
-1.72811e-12
-2.89242e-11
-4.71628e-11
-3.55757e-12
6.13771e-11
-2.27272e-11
-90.3619
93.8457
40.8223
-50.8744
-51.4155
-4.46328
28.9469
28.5624
1.77495e-05
-2.06966e-06
-2.00972e-06
-1.00465e-07
29.4825
-269.892
337.242
-52.8223
-1.62448e-11
3.21368e-11
-7.77869e-11
-164.272
147.204
16.6773
2.27133
12.4357
-8.78712
1.25783
-3.21253
195.128
-187.693
-117.258
111.857
-1.23002e-11
-1.00904e-11
-1.58455e-10
-7.85806e-11
-2.52023e-11
-2.70262e-12
3.38697e-11
2.87826e-11
-2.64085e-11
-4.43603e-12
-3.81495e-11
-3.16357e-11
-1.96674e-11
4.86046e-12
5.86236e-11
4.60348e-11
-3.33941e-12
-6.19828e-12
-7.28047e-13
107.266
-93.9443
-2.56209
-8.62403
-4.24198e-11
-5.95082e-12
-4.74937e-12
-4.58545e-11
-4.65451e-12
1.0093e-10
-4.20607e-11
-6.35781e-13
3.10101e-11
1.38177e-10
4.80797e-12
1.33233e-09
-1.25161e-10
5.48999e-11
-1.09128e-11
-4.57748e-11
3.36875e-11
-2.45079e-07
-2.57886e-11
4.46037e-12
5.02304e-12
-1.35177e-11
0.0346826
-0.114921
0.466409
-11.3742
-62.7293
63.9276
11.7786
-2.75187e-11
8.46029e-12
1.06469e-10
0.0390267
0.00861492
-0.00745743
-6.31701e-11
-4.59104e-11
-6.7467e-11
-2.23942e-11
41.3943
-49.8023
-240.918
265.451
-70.8427
70.7016
-8.99491
-6.33463
8.03664
-1.53594
-2.99491e-09
4.10607e-08
-3.41147e-09
3.93962e-11
-13.9481
-55.4382
5.49763e-11
-8.11875e-12
2.47199e-11
1.51144e-11
-1.80259e-12
3.82585e-11
-5.76002e-11
-1.03094e-11
2.18814e-06
2.28163e-07
-4.63667e-07
-1.79896e-07
-78.6415
-19.6186
55.0525
37.1316
-6.82665e-12
-2.71729e-11
1.68454e-11
1.58889e-11
-2.30952e-11
4.96007e-12
-4.29747e-11
-2.54752e-11
4.18106e-12
-7.68801e-12
1.63902e-10
7.55788e-11
-90.6464
1.37194
87.1529
-6.38175e-12
-3.45505e-12
5.04889e-12
1.26596e-11
-1.00448e-11
6.23962e-12
6.27307e-12
9.72183e-12
-2.4896e-11
-1.05475e-11
-6.01252e-11
4.9443e-12
-6.4083e-11
-3.03194e-11
1.36268e-11
-7.5669
-14.4283
26.2839
-3.66175e-11
-7.92505e-12
-3.37395e-11
8.087e-12
-6.53978e-11
-3.71232e-11
1.30136e-11
-2.58592e-11
-54.0749
-125.798
86.1343
86.3897
116.056
-34.477
-31.8488
-53.59
-0.0731246
-0.0554838
-0.0349722
0.300977
1.11374e-10
5.12928e-11
-3.90737e-11
3.63883e-11
5.86531e-11
2.0419e-11
2.03182e-11
3.40316e-12
1.69234e-11
6.7169e-12
6.54667e-11
-2.27721e-08
-2.32243e-09
9.81994e-08
-2.84122e-12
1.08792e-11
-8.55521e-11
-4.87759e-11
3.65611e-13
7.85078e-11
-4.34328e-11
1.65885e-11
-1.0414e-11
1.97947e-11
3.30473e-11
2.21725e-11
3.5509e-12
3.41625e-12
2.60273e-11
-2.4778e-11
-4.12082e-11
1.96034e-11
2.30345e-11
-3.48843
-13.2132
38.1469
-22.0674
-46.8471
15.1927
46.2974
-16.5286
1.76903e-11
9.3725e-12
-2.96111e-11
-1.56768e-11
3.59406e-11
9.97838e-12
-4.13081e-11
9.58169
-6.95922
-16.2927
13.2834
-0.0319154
0.484184
-0.0427458
18.6655
7.53151
-11.1832
-12.8837
2.13791e-09
-6.93092e-11
-8.80603e-11
-5.47041e-11
1.60338e-11
6.08205e-11
2.92218e-11
3.95257e-11
1.49783e-11
-6.90652e-12
2.5958e-07
-9.43533e-08
8.56343e-07
-1.44825e-07
-0.925437
-2.31143
6.92197
-1.57504
1.82052
1.71567
-0.33328
-1.15876
20.9459
-15.2433
-1.43238e-11
5.16404e-11
5.12557e-11
4.91679e-12
-166.303
66.0158
70.2889
24.8453
2.32708e-11
6.04103e-11
-2.89567e-11
2.34745e-12
-3.01542e-11
-1.75358e-11
5.86478e-11
3.41514e-11
-52.5661
115.908
-70.6345
29.5539
-32.9453
-38.0411
39.3596
3.89284
-0.87587
-1.89591
-1.08308
2.17637
-7.34282
-1.74248
7.27195
9.30765e-12
-1.00813e-11
-3.88786e-11
4.32178e-12
1.1645e-11
-4.37477e-11
-2.03182e-11
1.09849e-10
-2.78804e-11
4.09961e-11
-7.40024e-11
3.75309e-11
2.08455e-11
-1.24466e-11
1.02737e-11
-1.76941e-11
17.7591
-50.8903
59.111
-28.221
-3.79401
-3.96165
7.78859
-40.7074
-15.5196
-42.9554
57.3022
-109.823
-29.2832
78.9689
-2.01888
1.7112
-0.992424
3.04868
-1.02932
-3.98281
-0.428597
6.32106
4.70836
-75.6561
26.2399
-4.49625e-11
-1.8805e-11
-4.10509e-11
-1.64645e-11
56.0962
-2.36628
-86.3386
32.6916
5.33817e-06
5.86538e-07
-4.87053e-07
1.06857e-06
3.79573e-08
-2.65063e-07
-1.66821e-07
-0.0241067
-0.0217433
0.115937
-5.85651
2.11911
-3.0205e-11
-1.61179e-11
1.65825e-08
-2.83768e-08
3.64117e-07
4.15941e-11
4.0723e-11
-4.45167e-12
8.12195e-12
5.46968e-12
-1.42271e-11
3.06305e-06
-1.88612e-07
1.31521e-05
4.15177e-11
3.4774e-12
4.28567e-11
0.00387284
0.000387561
1.40637e-12
-2.89946e-11
-1.20359e-11
-2.69035e-11
-5.48621e-11
-9.13537e-12
9.84293e-11
4.50278e-11
-1.0751e-09
9.9093e-09
1.66198e-08
-5.05029e-11
-3.90314e-11
1.23096e-11
-1.11438e-09
6.36783e-09
-2.17862e-09
2.52572e-08
6.50643e-11
3.62118e-11
-3.02939e-11
-3.51804e-11
1.02765e-10
3.88144e-11
1.92186e-11
5.52974e-11
2.15178e-12
1.27108e-11
2.17824e-08
-3.84547e-09
1.333e-09
9.95071e-10
-0.000190611
0.000224256
0.00133692
0.000205755
0.000626096
-0.000244661
-0.000115432
7.54776e-11
3.6889e-11
4.60842e-11
6.98317e-11
0.000115463
-1.06915e-05
-1.14784e-05
-1.36175e-06
0.000222183
-0.000137122
-0.000330558
0.00137557
-8.44707e-11
1.19505e-10
-1.01089e-10
2.41771e-11
7.09832e-06
-2.76897e-06
-1.31545e-06