/*--------------------------------*- C++ -*----------------------------------*\
| =========                 |                                                 |
| \\      /  F ield         | OpenFOAM: The Open Source CFD Toolbox           |
|  \\    /   O peration     | Version:  2312                                  |
|   \\  /    A nd           | Website:  www.openfoam.com                      |
|    \\/     M anipulation  |                                                 |
\*---------------------------------------------------------------------------*/
FoamFile
{
    version     2.0;
    format      ascii;
    arch        "LSB;label=32;scalar=64";
    class       volScalarField;
    location    "0.05";
    object      epsilon;
}
// * * * * * * * * * * * * * * * * * * * * * * * * * * * * * * * * * * * * * //

dimensions      [0 2 -3 0 0 0 0];

internalField   nonuniform List<scalar> 
32842
(
2.346
2.346
2.346
2.346
2.35378
2.346
4.45376
11.2638
2.346
2.346
1.67229
1.54162
2.346
2.346
2.34615
2.346
2.346
2.346
2.346
2.35355
2.35472
2.35418
2.35334
2.346
2.35305
2.346
2.346
2.35095
0.285149
2.346
0.802227
0.18311
3.43475
2.346
3.21469
14.7132
2.35314
2.346
2.346
2.346
2.346
2.3546
2.346
2.346
0.253791
2.346
2.40263
2.346
2.35424
2.40126
4.33022
2.346
0.148445
2.35138
2.346
2.346
2.346
2.36886
2.346
2.346
11.8349
0.154078
0.138412
2.3546
2.346
2.34404
2.346
0.126714
0.198378
2.346
2.35061
2.39341
0.17459
2.346
2.346
2.346
0.301367
2.346
0.175273
2.45044
2.35369
2.346
2.346
0.158115
0.113832
2.346
2.346
2.346
0.624567
2.346
2.35381
2.35427
2.3459
2.34601
2.346
2.346
0.180072
2.346
0.12219
2.346
2.346
2.35538
2.346
1.01247
0.176049
0.19165
0.426203
2.346
0.16404
2.346
2.346
2.346
2.34435
2.346
2.346
2.35438
0.161268
0.59418
2.346
2.346
2.346
2.346
2.33476
2.346
2.346
0.177137
0.217817
2.346
2.34581
2.346
2.346
2.346
2.35564
0.174833
2.35485
2.346
2.346
1.28139
2.346
2.346
0.164173
2.346
0.165564
2.34599
2.346
2.346
1.06284
2.346
2.346
2.346
2.346
0.48156
2.35223
2.41257
2.346
2.346
2.346
2.346
2.346
2.346
2.346
2.346
2.35311
2.346
2.346
2.346
2.346
2.346
2.346
0.171159
2.34599
2.35442
2.34598
2.346
2.35483
2.46678
2.346
2.346
2.346
2.346
2.34953
2.346
2.346
2.346
0.160323
2.346
0.172739
2.346
2.346
2.346
2.346
0.676129
0.202077
2.346
0.194759
2.346
2.346
2.346
0.180447
2.346
2.346
2.346
0.772028
2.36996
2.3385
2.35749
2.346
2.35471
0.192358
2.346
2.346
2.346
2.34597
2.3459
2.346
2.346
2.346
2.346
2.346
2.346
0.639506
2.346
2.346
2.346
2.35531
0.228066
2.346
0.187222
2.346
2.34568
2.346
2.346
2.346
2.346
2.34593
2.35371
2.35395
2.346
2.346
0.154453
2.44508
2.346
2.346
2.38179
2.346
2.346
0.145944
2.346
2.346
2.346
2.346
2.346
2.346
0.180559
2.346
2.346
2.346
2.34595
2.346
2.346
2.346
2.346
2.346
2.346
0.234836
2.346
2.346
2.346
2.346
2.346
2.346
0.180167
2.346
0.230812
2.346
2.43131
2.346
2.35434
2.346
2.346
2.346
2.3459
2.34542
2.346
2.346
2.346
2.34594
2.346
2.35468
2.346
3.11532
2.346
0.199174
2.3459
0.191814
2.346
0.200568
2.346
2.346
2.35296
0.187061
2.346
2.346
2.346
2.346
2.346
2.346
2.346
2.346
0.152677
2.346
2.346
0.155617
2.346
2.346
2.346
2.346
2.34608
2.346
2.346
2.346
2.26465
2.346
2.34874
2.346
2.346
2.346
2.346
2.346
2.346
2.346
0.172447
2.346
2.346
2.346
2.346
0.0930203
0.19785
2.346
2.346
2.346
2.346
2.346
2.346
0.153181
2.346
2.346
0.188384
0.133371
0.166632
2.346
2.34591
2.346
0.180667
2.346
2.346
2.35322
2.346
2.346
2.346
2.346
2.346
2.346
2.93056
2.346
2.346
2.346
2.346
2.346
2.35272
2.346
3.37752
2.346
2.35379
2.346
0.163528
2.35389
2.346
2.346
2.35317
2.346
0.150793
0.176959
2.346
2.346
2.346
2.346
2.346
2.346
2.346
2.346
2.346
2.346
2.346
2.346
2.346
2.346
2.346
2.346
2.346
3.00872
2.346
2.346
2.346
2.34594
2.346
2.346
2.35514
2.346
2.35318
0.218897
2.346
2.346
2.346
2.346
2.346
2.346
2.346
2.346
2.51122
2.346
0.174339
2.346
2.35477
0.578892
2.346
2.346
2.346
2.346
2.346
2.346
2.346
2.346
0.17245
2.3536
0.0906143
2.346
3.12254
2.37583
0.162857
2.35465
2.44326
2.3533
0.159985
2.346
2.346
2.34955
2.346
2.35248
2.346
2.346
2.346
2.346
2.3458
2.35203
2.346
2.346
2.35403
2.346
2.346
2.346
2.35515
2.346
2.346
2.346
2.346
2.346
0.158763
2.346
2.346
2.346
2.35528
2.35384
2.346
2.346
0.157992
0.169614
2.346
2.346
2.346
2.346
2.35372
2.346
2.35086
0.158349
2.346
2.346
0.124487
2.346
2.346
2.35336
2.346
2.34976
2.346
0.166252
2.35477
0.206604
0.157369
2.346
2.346
2.35426
2.34594
2.346
0.168025
2.35393
0.122665
2.35211
2.346
2.34595
2.35388
2.346
0.174116
2.346
0.177013
2.346
2.346
2.35371
2.35448
2.34593
7.98413
0.65587
2.3903
2.34597
2.34598
2.34582
0.163142
2.346
2.346
2.346
0.158422
0.565587
0.136333
2.37445
2.346
2.346
2.35219
0.4673
2.346
0.30391
2.33828
2.346
2.34612
2.346
2.34599
2.346
2.346
2.346
0.16568
2.38034
2.346
2.35534
2.346
0.275999
0.198918
2.346
2.346
2.346
2.346
2.70964
2.37241
2.346
2.346
2.346
0.179298
2.76995
0.126867
2.346
2.346
2.346
2.39777
0.15632
0.206864
0.514438
0.201986
2.346
2.34596
0.201499
2.346
2.36084
2.346
2.35379
2.346
2.346
2.35396
2.35318
2.346
2.346
2.346
2.346
0.156679
2.35493
2.346
2.346
2.37775
2.346
2.35621
0.51352
0.132757
2.346
2.346
2.37719
0.572079
3.44106
2.346
2.73231
0.110287
2.26615
2.346
2.31326
2.346
2.346
2.346
2.346
2.346
2.35975
2.354
2.346
2.346
2.346
2.346
2.346
2.346
2.346
2.37197
0.128032
2.346
2.346
2.2247
2.35664
1.12172
2.346
0.457173
2.346
2.346
2.346
2.37824
0.17473
2.346
2.35352
2.346
0.361123
2.346
2.346
2.346
2.346
0.316422
2.346
2.346
2.36904
2.34112
2.346
2.346
2.346
0.198271
0.112905
2.346
0.172145
2.35356
2.346
2.346
2.34507
2.34429
2.346
0.124024
2.34527
2.346
2.346
2.346
2.346
2.35434
2.35386
2.346
2.346
2.41413
2.346
2.33172
2.346
2.346
0.46511
2.34396
2.34606
2.39039
2.346
2.346
2.35265
2.35337
2.38301
1.92093
2.34393
2.37947
2.346
2.346
2.34416
2.346
2.32698
2.346
2.346
0.14257
2.02162
2.346
2.346
2.346
2.346
2.346
2.346
2.346
2.346
2.346
0.152544
2.346
2.346
2.346
0.097631
2.346
2.346
2.346
0.199845
2.346
2.346
2.346
2.346
2.346
2.346
2.346
2.346
2.346
2.346
2.346
2.34936
2.346
2.3542
2.34927
2.35508
2.346
2.35403
2.35404
0.207137
2.346
2.346
2.35226
2.35028
2.346
0.225376
2.35328
2.346
2.346
2.346
2.346
2.346
0.149125
2.346
2.346
2.346
2.35466
0.177666
2.346
2.35344
2.346
2.35254
2.41857
2.3458
2.35284
2.346
0.133838
2.346
2.346
2.346
2.346
2.346
2.346
0.465215
2.346
2.346
0.148074
2.35343
2.346
2.346
2.346
0.134182
2.35544
0.164067
2.346
0.202904
0.222829
2.354
2.346
2.35218
2.346
2.3553
2.346
2.346
2.35444
0.394965
0.181385
2.346
2.34522
2.34606
0.214063
2.346
2.346
2.346
2.346
2.346
2.346
2.346
2.346
2.346
2.346
2.346
2.346
0.180771
2.346
0.594954
2.346
2.346
2.35385
2.37471
2.346
2.346
2.35456
2.346
2.346
2.346
2.35545
0.135597
2.346
2.346
2.346
2.34604
2.346
2.346
2.346
2.346
3.1527
2.346
2.63015
2.346
2.346
2.346
2.346
2.35276
2.346
2.346
2.346
2.346
0.637076
2.346
2.346
0.166389
2.34602
0.177757
2.346
2.34506
2.346
2.346
0.131989
2.3459
2.346
2.346
2.34594
2.35211
2.346
2.346
2.346
2.346
2.346
0.180198
0.440798
0.17393
2.346
0.162413
2.346
2.346
2.346
2.346
2.34941
2.346
2.346
2.346
2.346
2.346
2.346
2.346
2.346
2.346
2.36657
2.35359
2.346
0.646031
0.286055
2.346
2.346
0.601295
2.346
2.346
2.346
0.22918
2.346
2.346
0.185429
2.35419
2.346
2.346
2.346
2.346
2.34932
0.643346
2.346
2.346
0.209669
2.346
2.346
0.420733
2.346
2.346
2.346
2.346
0.182056
2.346
2.346
2.346
2.346
2.35295
2.346
0.209913
2.35382
2.34558
2.346
2.346
2.346
2.346
2.346
2.346
0.693278
0.524581
2.3519
2.3616
2.346
2.35281
2.346
2.346
2.346
2.346
2.346
2.346
2.346
2.346
2.346
2.346
2.57157
2.346
0.128377
2.346
0.153492
0.158216
2.346
2.35313
0.1563
2.38249
2.34429
2.27446
2.346
2.346
2.346
2.346
2.49713
2.346
0.273019
2.41274
2.29856
2.33648
2.34941
2.34592
2.346
2.34599
16.3503
2.346
2.3459
2.346
2.346
2.346
2.346
2.31991
2.346
0.16906
2.35407
2.45711
0.237843
0.150119
2.35324
2.346
2.346
2.346
2.346
2.346
2.346
2.346
2.346
1.15313
2.3552
2.346
2.34604
2.346
2.346
2.346
2.346
2.41687
0.513576
2.346
2.346
2.346
0.171385
0.863852
2.346
2.34599
0.161992
2.43946
2.346
2.346
2.4408
0.151944
2.346
2.346
2.346
2.346
2.34596
2.346
0.227493
2.346
2.346
2.346
2.346
2.346
2.36726
2.346
2.346
3.11291
0.716425
0.188017
2.346
2.34595
2.43413
2.346
2.346
2.346
0.131024
2.34597
2.346
2.35131
2.34599
2.346
2.346
2.34598
2.346
2.346
2.346
2.346
2.34558
2.346
2.346
2.346
2.39495
2.34998
2.34879
2.34598
2.346
2.3457
0.237591
2.346
0.137648
0.292519
2.34598
2.34599
2.34599
2.34599
2.346
0.117307
0.186227
2.346
2.346
2.346
2.346
2.346
2.346
2.346
2.346
0.437647
2.346
2.346
2.36181
2.346
2.34601
2.34572
0.814723
2.346
2.346
2.346
0.483112
2.34571
0.185179
2.346
2.346
2.346
2.38538
2.3459
2.35319
2.346
2.55071
2.346
2.37119
2.346
2.346
0.540777
2.35642
2.346
2.38803
2.346
2.346
0.588211
2.41628
2.34596
2.346
2.346
2.346
2.346
2.346
2.346
2.34599
2.346
2.346
2.34596
2.346
2.346
2.35097
2.346
2.34596
2.34596
2.346
2.346
2.34594
2.34599
2.34598
2.40064
2.346
2.34576
0.590607
2.35737
2.34592
2.346
0.143658
2.346
2.346
2.346
0.230985
2.35307
2.346
2.49457
0.190076
2.34599
2.40988
2.346
1.43468
0.443958
2.34599
2.346
2.346
2.34597
2.346
2.346
0.276649
2.346
2.34576
2.34599
2.35417
2.34885
2.346
2.346
2.34598
0.354344
2.346
2.346
2.346
0.416805
2.346
0.416676
3.57409
2.346
0.217093
0.252261
2.32935
2.34598
2.34596
0.21855
2.346
0.157753
2.34597
2.346
2.35178
2.346
2.34597
2.346
2.346
2.35311
2.346
0.181378
2.34599
2.35336
0.149439
0.499396
2.346
2.34596
2.35416
0.148544
0.173873
2.346
2.346
0.246281
2.34596
2.35436
2.346
0.149933
2.346
2.35215
0.813534
2.35329
2.346
0.186123
2.36548
2.346
2.34572
2.346
2.346
2.346
2.346
0.583731
2.35287
2.346
0.513155
0.234462
2.346
2.346
3.20012
2.346
2.346
2.346
2.34596
2.34598
2.346
2.34583
2.346
0.136542
0.280163
2.346
0.180822
0.348116
2.36513
2.35836
2.346
0.291373
2.34594
2.15515
2.34585
2.34533
2.35474
2.34597
2.346
2.3457
2.346
0.187999
2.346
2.34599
2.346
2.3544
2.34894
0.695817
0.80709
2.35434
2.346
2.34585
0.19842
2.346
2.346
0.280866
2.35579
2.346
0.14095
2.346
2.34599
2.34599
0.140156
2.346
2.346
2.34599
2.43397
2.35371
2.346
2.35292
2.346
2.346
0.902254
2.346
0.174758
0.196563
2.346
2.41813
2.346
0.538655
2.51877
2.346
2.35643
2.44454
2.346
2.346
2.346
0.215191
2.346
2.346
2.346
2.35547
2.346
2.346
2.346
2.346
2.346
2.346
2.346
2.346
2.346
2.346
2.346
2.34598
2.346
2.346
2.34553
2.346
2.346
2.346
2.346
2.346
2.35488
2.34599
2.346
2.346
2.346
2.346
2.30971
2.24938
2.3549
0.215011
2.34591
2.346
2.346
2.34585
2.34591
2.35396
0.139433
2.346
2.346
2.42571
2.35409
2.34589
2.35281
2.35618
2.35185
2.346
2.34587
2.346
2.346
2.35323
2.34585
0.397254
0.234549
2.34591
2.35334
2.35272
2.35776
2.346
2.34595
2.34597
2.35303
2.45974
2.346
2.34502
2.346
2.346
2.346
2.34601
2.346
2.34593
2.346
2.346
2.35435
2.34599
0.497065
2.346
2.346
2.346
2.34597
2.346
2.346
2.07757
2.346
2.34599
2.346
2.346
2.346
2.346
2.346
2.346
2.34598
2.346
2.34601
0.419223
2.346
2.346
2.346
2.346
2.346
2.346
2.34597
2.346
2.346
2.346
2.3539
0.226145
2.346
2.346
2.346
2.34566
2.346
2.346
2.346
2.346
2.346
0.153023
2.346
2.346
2.346
2.34532
2.346
2.346
2.346
0.154838
2.346
2.346
2.346
2.346
2.346
2.346
2.34599
2.346
2.346
2.346
2.37418
2.34598
2.346
2.34589
2.34588
2.34589
2.346
2.34584
2.346
2.35275
2.346
2.34585
2.34591
2.346
2.346
2.346
2.346
2.34593
2.34596
2.346
2.346
2.346
2.346
2.346
1.20298
2.346
2.34575
2.34589
2.346
2.346
0.434371
2.346
2.346
2.346
2.346
0.189952
2.346
2.34589
2.346
2.346
2.346
0.144582
2.35305
2.346
2.346
2.346
2.346
2.346
2.346
2.34597
2.346
2.346
2.346
2.35393
2.346
0.269473
0.139979
2.346
1.39543
1.26401
2.35324
2.346
2.346
0.162007
2.34599
2.38353
1.12535
2.346
2.346
2.35725
2.346
2.34599
2.346
2.346
2.35445
2.37
2.346
2.346
2.34609
2.346
2.346
2.346
2.346
0.342224
0.151824
2.34597
2.346
2.346
2.346
2.34576
2.346
1.22882
2.34571
2.35425
2.346
2.346
2.346
2.346
2.34568
2.34585
2.346
2.346
2.346
2.346
0.182219
2.346
0.163377
2.346
0.156035
2.35454
2.34599
2.346
2.346
2.346
2.346
2.346
2.346
2.346
0.189215
2.346
2.346
0.489249
2.346
2.346
2.346
2.346
2.346
2.346
2.34579
2.346
2.346
2.346
0.148423
2.34599
2.34547
2.34572
2.34585
0.171768
2.35307
1.65504
2.346
0.193826
2.346
2.346
2.3546
0.551088
1.05218
2.35631
2.346
0.172318
2.44587
2.346
2.346
2.346
2.346
2.346
2.346
2.35261
1.97139
2.346
2.34597
2.41464
2.346
2.346
2.346
2.346
2.346
2.346
2.346
2.35464
2.34599
2.346
2.346
2.45063
2.346
2.34599
0.161544
2.346
2.3541
2.34599
2.346
2.35419
2.35507
2.34599
0.131205
2.346
2.34595
2.346
2.346
2.346
2.346
2.346
2.346
2.346
2.34597
2.346
2.346
2.34604
2.346
2.346
2.346
2.346
2.346
0.143372
2.346
2.346
2.346
2.346
2.346
2.346
2.64375
2.346
2.346
0.215296
2.346
2.346
2.346
2.346
2.36109
1.38887
2.346
2.346
2.3459
2.346
2.346
2.346
2.29958
2.346
2.346
2.346
2.34602
2.3527
2.346
2.35428
2.346
0.141117
2.35298
2.346
2.34599
2.346
2.346
2.346
2.346
2.346
2.346
2.35504
2.346
2.346
2.346
0.140888
2.34597
2.346
2.346
2.35615
2.346
2.35476
0.196266
2.45315
2.346
2.346
2.35494
2.346
2.346
2.346
2.42478
0.221993
2.3546
0.1771
0.12218
2.346
2.346
0.111713
2.346
2.346
1.06103
2.35307
2.346
2.346
2.346
2.346
2.346
2.346
2.346
2.346
0.141901
2.346
2.346
2.346
2.346
2.346
0.337379
0.290989
2.35496
2.346
2.35356
2.35713
2.346
2.346
2.346
2.34597
0.17862
2.61006
2.346
2.34545
2.346
2.346
0.390383
0.211627
2.346
2.346
2.346
2.346
2.346
2.346
2.346
2.346
2.346
2.10487
0.125954
2.346
2.346
2.34578
2.346
2.34595
2.346
2.35319
2.346
2.346
2.346
2.33421
0.724924
2.346
2.346
2.346
2.346
2.346
2.346
0.108089
2.35266
2.34598
0.200306
2.346
2.34596
2.346
2.346
2.346
2.346
2.346
2.346
0.149556
2.346
2.36919
2.346
2.346
2.346
3.00516
2.346
2.346
0.69305
0.15233
2.346
2.346
2.346
2.346
2.346
2.346
0.152822
2.346
2.346
2.346
2.34598
2.346
2.346
2.346
2.346
2.346
2.346
2.34583
2.346
2.346
2.35175
2.346
2.346
2.346
2.346
2.346
2.36193
2.346
2.346
2.34598
2.34594
0.129228
2.346
2.346
2.62138
2.346
2.346
2.41599
2.346
2.3267
2.32927
2.42995
0.161996
2.346
2.346
2.346
2.346
2.346
0.181623
2.346
0.189155
2.346
2.33958
2.36434
2.346
2.34559
2.346
2.346
2.346
3.15116
0.13049
2.346
0.63309
2.346
2.346
2.346
2.346
2.346
2.346
2.34583
0.176397
2.346
2.346
2.346
2.346
2.34588
2.346
2.34594
2.346
2.346
2.346
2.35291
2.346
2.34594
2.34563
2.346
2.346
2.346
2.34599
2.346
2.346
2.346
2.46329
2.346
2.346
2.346
2.346
2.34595
2.46769
2.34574
2.34599
2.34591
2.346
2.346
2.346
2.34597
2.346
2.346
2.34598
2.34998
2.32291
2.346
2.346
0.168347
0.183376
2.34555
2.346
2.346
2.41931
2.80321
2.3597
2.34596
2.82173
2.346
2.346
2.34591
2.346
2.346
2.35352
2.34597
2.346
2.34595
0.16349
2.34594
2.346
2.34544
2.34592
2.346
2.346
2.34593
2.346
2.346
2.346
2.346
2.346
2.346
2.346
0.367922
2.346
2.346
2.346
2.346
2.3517
2.38715
2.346
2.346
2.346
2.34601
2.34584
2.346
2.346
2.346
2.346
2.346
2.346
2.346
2.34584
2.346
2.38272
2.346
2.34599
2.346
2.34599
2.34599
2.34597
2.346
2.346
2.34599
2.346
2.346
2.346
2.346
2.346
2.346
2.34599
2.3458
2.34597
2.34501
2.35354
2.34489
2.35373
2.35603
2.346
2.346
2.35366
2.346
2.35245
2.346
2.346
2.346
2.35302
2.346
2.346
2.35548
2.346
2.346
2.346
2.346
2.346
2.346
0.231827
2.346
2.346
2.34596
2.346
2.34591
2.34583
0.174137
2.34593
0.176998
2.3458
0.160192
2.346
2.346
2.346
0.198953
2.346
2.34595
2.346
2.346
2.346
2.346
2.346
2.346
2.346
2.346
2.346
0.151714
2.346
2.346
2.34591
2.346
2.346
2.34591
0.208917
2.346
2.346
2.346
0.123232
2.34613
2.34598
2.34578
2.34596
2.346
2.346
2.346
2.346
2.346
2.346
2.3528
2.346
2.346
2.346
2.346
2.346
2.346
2.346
2.346
2.34598
2.346
2.34597
2.36212
2.36649
2.346
2.346
2.34595
2.346
2.346
2.34588
2.35401
2.346
2.346
2.35527
0.571548
1.122
2.346
2.346
2.35353
2.34595
2.346
2.346
2.346
2.34601
2.34596
2.346
2.35708
2.346
2.346
2.346
2.346
2.346
2.346
2.346
2.346
2.346
2.346
2.346
2.346
2.346
2.34599
2.346
2.44564
2.34599
2.34594
2.34599
0.17492
0.161955
2.346
2.34599
2.346
2.346
2.346
0.619066
0.335386
0.203693
2.346
2.34594
2.39501
2.34599
2.34598
2.35329
2.346
2.346
2.34591
2.34607
2.34599
2.346
2.346
2.346
2.346
0.189426
2.34599
2.36116
2.34599
2.346
2.346
2.346
2.346
2.34599
2.346
2.346
2.346
0.122265
2.346
2.346
2.346
2.346
2.346
2.346
2.346
0.172551
2.346
2.346
2.346
2.34594
2.346
2.346
2.346
2.346
2.34599
2.346
2.346
2.346
2.346
1.39998
0.494009
2.346
2.346
2.346
2.346
2.34599
0.102442
2.42152
2.34079
0.133115
2.346
2.34598
2.346
2.346
2.346
2.346
2.346
2.40949
2.346
0.291052
2.34599
2.346
2.346
2.35143
2.346
0.150176
2.346
2.36305
2.346
2.346
2.34598
2.346
2.346
2.34575
2.346
2.346
2.346
2.34573
2.34599
2.346
2.3693
2.346
2.346
2.346
2.346
2.346
2.346
2.346
2.346
2.346
2.346
2.36291
2.346
2.346
2.346
2.35582
2.35447
0.481336
2.3459
2.346
2.346
2.346
2.37772
2.34589
2.346
2.346
2.34473
2.34594
2.346
0.546467
2.34599
2.346
0.202065
0.194998
2.346
2.346
2.346
2.346
0.148256
2.346
2.3459
2.346
2.346
1.61254
2.96536
2.346
2.34589
2.34575
2.346
2.346
2.35415
2.346
2.37614
2.35289
2.35243
2.35467
2.346
2.346
2.43595
2.36356
2.346
2.346
2.346
2.346
2.346
2.346
0.184941
1.60267
0.199626
2.346
2.346
2.346
2.346
2.346
2.346
2.346
2.346
2.43967
2.346
0.226325
0.186187
2.346
2.346
2.346
2.34581
2.346
2.346
2.346
0.153747
2.346
2.346
2.346
2.346
2.346
2.38396
2.346
2.346
2.00925
2.34597
2.346
0.421584
2.346
2.346
2.346
2.346
0.0967304
2.346
2.346
2.346
2.346
2.346
2.346
2.35548
2.346
2.346
2.346
2.34599
2.346
2.346
2.346
2.346
2.35583
0.206892
0.381054
2.346
2.346
2.35264
2.346
2.35588
0.139197
2.34599
2.35431
0.349016
2.346
2.35285
2.346
2.346
2.46177
0.670185
2.346
2.3542
2.35263
0.270672
2.346
2.346
2.346
2.34586
2.346
2.346
2.37454
2.346
2.346
2.35465
0.525307
3.06376
2.346
0.264401
2.346
0.264559
2.346
2.346
0.115835
2.346
2.35577
2.34598
2.34599
2.35519
2.34592
2.346
2.34185
2.346
0.155448
2.44345
2.346
2.346
2.346
0.518707
2.34596
2.34599
2.346
2.346
2.34586
2.346
2.346
2.34597
2.34597
2.35262
2.346
2.346
2.346
0.156402
2.346
2.346
2.346
0.596676
2.346
2.346
2.346
2.35382
2.346
2.346
2.3459
2.34595
2.346
2.346
0.133813
2.40531
2.346
0.310735
2.35241
2.3529
2.35594
2.346
2.346
2.35321
2.346
2.346
2.34599
2.346
0.586871
2.346
2.34578
0.595303
2.346
0.238502
2.346
2.346
2.346
2.34594
0.239641
2.34598
0.172494
2.346
2.346
0.167653
2.346
2.346
0.182362
0.560742
2.346
2.346
2.346
2.346
2.35471
0.184048
2.346
1.33058
2.346
2.346
0.507556
0.147031
2.34596
2.346
0.123045
2.34562
2.37267
2.34596
2.346
2.346
2.346
2.346
2.35312
2.3561
2.346
2.346
2.34598
2.47214
2.35461
2.34573
0.183563
2.34561
2.35276
2.3459
2.346
2.34596
2.35257
0.182249
2.346
2.346
2.38124
2.346
2.346
2.346
2.346
2.346
2.35306
0.184664
2.346
2.346
2.34549
2.34553
2.35298
2.346
2.346
2.346
2.346
0.433774
2.346
0.132
0.132477
2.346
2.346
2.34583
2.34566
0.0968466
0.149131
2.346
2.35531
0.160404
2.346
2.346
2.346
2.34562
2.346
2.346
2.346
2.346
2.35411
2.346
2.346
2.34576
2.34944
2.3567
2.346
0.174049
0.156917
2.34587
2.346
2.346
2.4518
2.346
2.346
2.346
0.136038
2.346
2.35476
0.15224
2.346
2.346
0.193672
2.346
2.346
2.34638
0.149806
2.346
0.14793
2.346
2.346
2.346
2.346
2.346
2.44556
2.346
0.106519
2.35385
2.346
2.346
1.74253
2.346
0.198455
2.3533
2.346
2.346
2.346
2.346
2.35266
0.17634
2.346
2.35445
0.171391
2.346
2.346
2.35338
2.346
2.346
2.35363
2.35308
2.346
2.346
2.34599
0.191102
2.35416
0.189021
0.155435
2.346
0.147176
2.346
2.346
2.346
2.346
2.346
2.346
2.34599
2.346
2.35331
2.34598
2.35413
2.346
2.346
2.42082
2.03189
2.35266
2.42077
2.346
2.43055
2.346
2.346
2.346
2.346
0.205911
2.346
0.15568
2.346
2.346
2.346
2.346
2.35417
2.35264
0.18655
0.118747
2.346
2.346
2.34608
2.34592
2.346
2.346
2.34597
0.110448
2.346
0.149272
2.346
2.346
2.346
2.346
2.346
2.35294
0.14139
0.132145
2.346
2.346
2.35377
2.346
0.188526
2.346
2.346
2.346
2.35456
2.35321
2.35436
2.346
2.35254
0.159919
2.346
2.346
2.346
0.161716
2.346
2.346
2.346
2.346
2.346
0.163627
2.356
2.346
2.346
0.129278
2.346
2.346
0.225588
0.223223
2.35493
2.346
2.346
2.35473
2.346
2.346
2.346
2.346
2.346
2.346
2.346
2.346
2.34599
2.346
2.346
2.346
2.34597
2.34599
2.34576
2.3458
2.346
0.224578
2.34598
2.34599
2.35362
2.34594
2.346
0.173908
2.34598
0.479314
2.34594
2.35463
2.34596
2.51499
2.34599
2.34598
2.346
2.346
2.38749
2.346
2.34594
2.34597
2.00309
2.34599
2.34598
2.34595
2.34527
2.37379
2.34549
2.346
2.346
2.346
0.415638
2.34597
2.346
2.35392
2.346
2.346
2.346
0.165261
2.346
2.3543
2.346
2.346
2.346
2.346
2.346
2.35237
2.346
2.34025
0.869411
0.177481
2.346
0.181977
2.3455
0.102326
2.35108
2.346
2.346
2.3522
2.36071
2.35461
2.346
2.3547
2.38946
2.346
2.346
0.139496
2.346
0.48036
2.3529
2.346
0.156934
2.346
2.346
2.3528
2.3546
0.174397
2.3439
2.36442
2.346
0.170183
2.35439
2.346
2.346
2.35432
0.225879
2.346
2.346
2.346
0.217086
2.35248
0.163959
0.431563
0.592581
2.34564
0.132303
0.183229
2.346
2.346
2.346
2.34596
2.346
2.35398
2.35909
2.35025
2.34566
2.34594
1.24844
2.346
2.34565
2.3457
2.346
2.346
2.35448
2.346
2.346
2.346
2.34343
2.346
2.346
2.346
2.346
2.34559
2.37949
2.346
2.346
0.175038
2.346
2.346
2.38977
0.178257
2.3529
0.619313
2.346
2.35334
2.34591
2.346
2.346
0.175458
2.35347
2.34601
2.346
2.34574
0.175915
0.168801
2.346
2.34599
2.346
2.346
2.02792
2.35325
2.346
2.346
2.346
2.346
2.346
2.346
2.35984
2.346
2.346
2.346
2.346
2.346
2.346
2.346
2.346
2.34578
2.346
2.33898
0.196086
2.346
0.339846
0.267091
2.346
1.33469
2.37798
2.34592
2.44944
2.34592
2.346
2.346
2.346
2.36268
2.346
2.346
0.547272
2.346
2.34591
2.34615
2.346
2.346
2.346
2.346
2.44432
2.346
2.346
0.347891
2.346
2.346
2.34598
2.346
2.34523
2.34583
2.346
2.346
2.346
2.346
2.346
2.34595
2.36653
2.34595
2.346
1.12054
2.346
0.680134
2.3448
2.48862
1.5599
2.27904
2.346
2.346
2.34588
2.34585
2.346
2.346
1.00483
2.346
2.346
2.346
2.34595
0.172052
2.346
2.346
2.346
1.3251
2.38273
2.346
2.346
2.346
2.35341
2.346
2.346
2.346
1.17254
2.34528
0.902026
2.346
2.33305
2.37019
2.346
2.346
2.346
2.3559
2.346
2.346
1.97486
2.34601
0.902365
2.346
2.40095
2.35398
2.346
2.34574
0.509644
0.902213
2.39778
0.169575
2.346
2.346
2.346
2.346
2.346
2.346
2.35623
2.346
0.894202
2.37947
2.346
2.346
2.346
2.346
2.35507
2.346
3.03609
2.346
2.346
2.346
2.34599
2.38237
0.551394
2.346
2.40761
2.346
2.346
2.42651
0.439596
2.346
2.34598
1.97535
2.346
2.34598
2.34599
0.547938
2.34598
2.3458
2.37187
2.36723
2.34599
2.346
2.3788
2.346
2.346
2.3458
0.71645
2.34596
2.34599
2.34589
2.15362
2.346
2.346
2.34559
2.34599
2.34595
2.34599
2.34599
2.34598
2.34588
2.34604
2.34567
2.346
2.34606
0.984339
2.35228
2.38545
0.680966
2.346
2.35368
0.154093
2.346
2.34598
2.35527
2.34598
2.37887
2.346
2.34577
2.346
2.346
1.09995
2.346
1.76135
2.34599
2.346
0.148615
2.346
2.346
0.163701
2.34591
2.346
0.529532
2.346
2.346
2.346
2.35329
2.346
2.346
2.346
2.346
0.123944
2.346
2.346
2.346
2.346
1.32966
2.346
2.346
2.346
2.346
2.34597
2.34599
2.346
2.346
0.961556
2.34596
2.346
2.34598
2.346
2.346
0.162279
2.34544
2.346
2.346
2.346
2.346
2.3459
2.346
2.346
2.34588
2.34584
2.28592
2.346
2.346
2.346
2.346
2.35292
2.346
0.33619
2.346
2.346
2.346
2.346
2.34281
2.35619
2.346
0.403296
1.26618
2.346
2.346
2.40074
2.3585
2.41352
1.78174
2.34575
2.346
2.346
2.346
2.346
2.34585
2.73942
2.34599
2.34598
2.35704
2.346
2.346
2.34597
2.34599
2.40692
2.35562
2.346
2.35361
2.346
2.34599
2.34599
2.34599
0.338624
0.539754
2.34597
2.34525
2.346
2.346
2.346
2.34598
2.346
2.346
2.36308
2.346
2.34599
2.346
2.346
2.43295
2.34581
2.34598
2.34595
2.46818
2.346
2.37128
2.346
2.44266
2.346
2.346
2.36039
0.19767
2.34573
0.426022
2.06489
2.38296
2.34596
2.346
2.34585
2.346
2.34586
2.34583
2.41382
2.34588
2.34565
2.346
2.34568
2.36868
2.346
2.346
2.34589
2.32406
2.34598
1.22116
2.34598
2.346
2.346
2.346
2.346
0.789736
2.346
2.346
2.346
1.17821
2.346
2.346
2.346
2.346
2.346
2.346
2.346
2.346
2.346
0.391022
2.346
2.346
2.34574
2.346
2.346
2.346
2.346
2.346
2.33222
2.346
2.346
2.34564
2.34596
2.34598
2.40029
0.533004
2.346
2.346
0.697367
2.34597
2.34597
0.16135
2.47438
2.34599
2.42381
2.346
2.37334
2.34599
2.34599
2.34593
2.34493
0.524488
2.0817
2.35717
2.34583
0.128092
2.346
2.346
2.34599
2.40449
2.34599
2.346
2.346
2.34592
2.34598
2.3459
2.34598
2.346
2.346
2.346
2.346
2.34497
2.346
0.988825
2.44322
2.346
2.346
2.346
2.48886
2.34471
2.3449
2.346
2.346
2.34599
2.346
2.44423
2.346
2.346
2.346
2.34478
2.4271
2.358
2.346
2.39791
2.34595
2.346
2.346
2.346
2.34566
2.34572
2.34556
2.34563
2.346
2.34575
0.479834
2.34588
1.25649
0.366845
2.346
2.346
2.02023
2.43244
2.346
2.34578
2.34575
2.34599
2.34599
2.346
2.346
2.346
2.346
3.06648
2.3689
2.38534
2.346
2.346
2.346
0.163301
2.346
2.346
2.34597
0.497902
2.34574
2.346
2.346
2.34598
2.34576
2.346
2.34491
2.346
2.35752
2.34593
2.15075
2.34595
2.346
2.34573
2.34599
2.346
2.346
1.97719
2.346
0.152946
2.36827
0.189054
2.34539
0.166205
0.131946
0.524784
2.346
2.34564
0.431263
2.34584
2.34595
2.34599
2.34595
2.39402
2.07016
2.35395
2.346
2.36426
2.34595
2.34596
2.346
2.34542
2.34606
2.38025
2.346
2.34599
3.24273
2.346
2.18899
2.34587
2.26878
2.346
2.346
0.659937
2.34588
0.654059
2.34596
2.346
2.34585
0.406503
2.346
2.346
2.34597
2.34599
2.39679
2.41287
2.346
2.346
2.346
2.346
2.34548
2.34596
2.346
2.346
2.34587
2.44379
0.145824
0.524753
2.3459
2.34601
2.35241
2.346
2.346
2.41804
2.346
2.346
2.346
2.42755
0.20071
1.37292
2.346
2.346
2.346
2.346
2.34598
2.346
2.346
2.346
0.447478
2.346
2.39472
2.34573
2.346
0.283517
2.34597
2.34592
2.34598
0.115514
2.36045
2.34485
0.657775
2.44622
2.34572
2.31114
2.34597
2.34581
2.43776
2.346
2.43866
2.346
2.346
0.508081
2.3458
2.53877
0.216708
2.346
2.346
2.35429
2.34599
2.34558
2.346
2.346
2.346
2.34584
2.3539
2.34602
2.53039
2.34575
1.63376
2.34596
2.346
2.39968
2.34585
2.34581
2.346
2.34583
2.37501
2.37371
1.38397
2.346
2.346
2.346
2.346
2.346
2.34578
2.346
2.34599
2.2047
2.34578
2.34576
2.34566
0.204299
2.2887
2.346
2.346
2.37967
2.346
2.3535
2.35924
2.346
2.346
2.346
2.34559
2.346
2.346
2.346
2.34597
0.524893
2.47579
2.346
2.346
1.46094
2.346
2.346
2.346
2.346
0.12976
2.346
2.34587
2.346
2.34548
2.346
2.346
2.346
2.2895
2.346
0.201808
2.3441
2.346
2.346
2.346
2.346
2.3459
2.346
2.346
2.34413
2.34599
2.35693
2.34599
2.346
2.34593
0.362868
2.346
2.346
2.346
2.346
2.346
0.161057
2.346
2.346
2.346
2.346
0.175062
2.35212
2.346
2.346
2.346
1.31298
2.34585
2.34599
2.34583
2.346
2.37147
2.34594
2.34575
2.38916
2.346
2.346
2.34599
2.346
2.346
2.3617
2.34598
1.27872
2.346
2.37567
2.346
2.34597
2.346
2.346
1.33269
2.346
2.34599
2.34599
2.34597
2.34599
2.34599
2.346
2.34599
2.27036
2.346
0.366969
2.346
2.346
2.346
2.346
2.346
2.346
2.346
2.346
0.57324
2.346
2.346
2.346
0.37481
2.346
0.216017
0.200657
2.346
2.346
2.346
2.346
2.34522
2.346
2.346
2.3536
2.346
2.346
2.45799
2.3458
2.346
2.346
2.34586
2.346
0.29472
2.34589
2.34595
2.346
2.346
2.45082
2.346
2.346
2.34514
2.34598
2.34589
2.34597
2.34563
2.34592
2.346
2.41854
2.35278
2.41236
2.346
2.346
2.346
2.346
2.346
2.34599
2.40967
2.34567
2.34597
2.346
2.346
2.346
0.291399
2.34542
0.535815
2.34563
2.34597
2.34599
2.346
2.346
2.34598
1.89377
2.34597
2.346
3.003
2.346
2.346
2.3446
2.346
2.34598
2.346
2.346
2.346
1.60836
2.346
2.346
2.34596
2.346
2.34593
2.346
2.346
2.346
2.346
2.346
2.62063
2.346
2.34611
2.346
2.3458
2.346
2.34551
0.97236
2.34564
2.37114
2.346
2.346
2.346
2.346
2.34596
2.346
3.00662
2.34595
2.346
2.35311
2.346
0.181057
2.34596
2.346
2.346
2.346
2.42638
2.346
0.668001
2.34596
2.346
2.346
2.34599
2.37386
2.346
2.34596
2.34599
2.34584
2.40379
2.362
2.346
2.47333
2.346
2.346
1.05023
2.346
2.34597
2.346
2.34599
2.346
2.346
2.346
2.346
2.346
2.346
2.346
2.346
2.346
2.34609
2.34588
2.48243
2.37478
2.346
2.346
2.346
2.346
2.34599
2.346
2.34578
2.346
2.346
2.34595
2.346
2.34606
2.34599
2.346
1.14925
0.274536
2.34574
2.346
2.346
2.346
2.38238
3.15634
2.346
2.43068
2.346
2.346
2.346
2.3631
0.126404
2.346
2.346
2.346
2.34598
2.346
2.346
2.346
2.346
2.34583
2.346
2.45236
2.34559
2.34597
2.346
2.346
2.346
2.346
2.39149
2.34537
2.34583
2.34629
2.346
2.35406
2.346
2.2286
2.34586
2.346
2.346
2.34599
2.346
2.346
2.34599
3.07813
2.38255
2.47512
2.346
2.346
2.346
2.34546
2.34579
2.34599
2.346
2.346
2.34595
0.15854
2.34598
2.346
2.346
2.346
2.346
2.34604
2.34582
0.230335
2.346
2.34598
2.37021
2.346
2.346
2.35786
2.33016
2.346
2.346
2.346
2.346
2.346
2.346
2.346
2.346
2.346
2.346
2.346
2.346
2.346
2.346
2.346
2.346
0.180275
2.346
2.346
2.346
2.34598
0.162962
2.346
2.346
2.346
2.346
2.34605
2.346
2.35392
2.346
2.346
2.346
2.346
2.346
2.346
2.346
0.137163
2.346
2.346
2.346
2.346
2.346
2.346
2.346
2.35208
2.346
2.346
2.346
2.34599
2.346
2.3665
2.346
0.138088
2.346
2.346
2.346
2.346
2.346
2.346
2.346
0.455343
0.167066
2.346
2.35526
2.346
0.138084
2.34595
2.346
2.346
2.346
2.346
2.34598
2.346
2.3538
2.346
2.34596
2.34598
0.2358
2.34596
2.346
2.346
2.346
2.3459
2.346
0.17749
0.164477
0.119791
2.346
2.346
0.155444
2.35287
2.3636
2.35477
2.346
0.204971
2.34589
2.3458
2.34569
2.346
2.346
2.346
2.346
2.35262
2.346
0.199988
2.346
2.346
2.346
2.346
2.346
2.35319
2.346
2.346
2.346
2.346
2.346
2.35335
2.346
2.346
2.35462
2.346
2.346
2.346
2.35561
2.3581
2.346
2.346
2.346
2.346
2.346
2.346
2.346
2.346
2.346
2.346
0.595182
2.346
2.346
2.346
2.35892
2.346
2.346
0.105703
2.346
2.346
2.346
2.346
2.346
2.3434
2.346
2.3547
2.35267
2.34599
2.346
2.346
2.346
2.346
2.346
2.346
2.346
2.346
2.3532
2.346
2.346
2.346
2.34888
0.483062
2.346
2.35287
2.346
2.346
2.346
2.35129
2.346
2.346
0.202389
2.35242
2.346
0.192645
2.346
2.346
2.346
2.346
2.346
2.346
1.65776
2.346
0.139551
2.346
2.41475
2.346
2.34601
2.34601
2.346
2.346
2.3459
2.346
2.38169
1.8548
2.346
2.346
2.35362
2.346
2.346
2.346
0.143033
2.346
2.346
2.346
2.346
2.346
2.47679
2.346
2.34603
2.346
2.35286
2.346
2.346
2.346
0.139042
2.3456
2.346
2.35391
2.35665
2.346
2.346
2.34596
2.346
2.346
2.346
2.346
2.346
0.136835
2.346
2.346
2.346
2.346
2.346
2.346
2.346
2.346
2.346
2.346
2.346
2.346
0.223026
2.346
2.346
2.346
2.346
2.346
2.346
2.346
2.346
2.346
0.156794
2.35403
2.346
2.346
2.346
2.346
2.346
2.346
2.346
2.35328
2.346
2.346
2.34889
2.346
2.346
2.346
2.346
2.346
2.346
2.346
2.346
0.138205
2.346
0.222642
2.346
2.346
0.175484
2.346
2.346
2.346
2.34594
2.346
2.346
0.227374
2.346
2.346
2.346
2.346
2.346
2.346
2.346
2.346
2.34599
2.346
2.346
2.346
0.169405
2.346
2.346
2.346
2.35224
2.35358
2.346
2.346
2.346
2.346
2.346
0.182293
2.346
2.346
2.346
2.346
2.346