/*--------------------------------*- C++ -*----------------------------------*\
| =========                 |                                                 |
| \\      /  F ield         | OpenFOAM: The Open Source CFD Toolbox           |
|  \\    /   O peration     | Version:  2312                                  |
|   \\  /    A nd           | Website:  www.openfoam.com                      |
|    \\/     M anipulation  |                                                 |
\*---------------------------------------------------------------------------*/
FoamFile
{
    version     2.0;
    format      ascii;
    arch        "LSB;label=32;scalar=64";
    class       volScalarField;
    location    "0.05";
    object      k;
}
// * * * * * * * * * * * * * * * * * * * * * * * * * * * * * * * * * * * * * //

dimensions      [0 2 -2 0 0 0 0];

internalField   nonuniform List<scalar> 
32842
(
0.128962
0.128962
0.128962
0.128962
0.130144
0.128962
0.585971
0.944305
0.128962
0.128962
1.22927
1.25527
0.128962
0.128962
0.128962
0.128962
0.128962
0.128962
0.128962
0.130108
0.130286
0.130205
0.130074
0.128962
0.130033
0.128962
0.128962
0.129711
0.938936
0.128962
0.947714
0.988727
0.339257
0.128962
0.170135
0.560836
0.130049
0.128962
0.128962
0.128962
0.128962
0.13027
0.128962
0.128962
0.98544
0.128962
0.13797
0.128962
0.130216
0.227967
0.307171
0.128962
0.991322
0.139945
0.128962
0.128963
0.128962
0.137761
0.128962
0.128962
1.02773
0.990552
0.990698
0.130273
0.128962
0.128884
0.128962
0.993632
0.989182
0.128962
0.129662
0.136038
0.989563
0.128962
0.128962
0.128962
0.890411
0.128962
0.989958
0.143695
0.13013
0.128962
0.128962
0.990811
0.993467
0.128962
0.128962
0.128962
1.03643
0.128962
0.130148
0.130218
0.128958
0.128962
0.128962
0.128962
0.989638
0.128962
0.99173
0.128962
0.128962
0.130389
0.128962
0.942591
0.989628
0.989195
0.896881
0.128962
0.989454
0.128962
0.128962
0.128962
0.128896
0.128962
0.128962
0.130237
0.9908
0.967393
0.128962
0.128962
0.128962
0.128962
0.368576
0.128962
0.128962
0.990025
0.987416
0.128962
0.128955
0.128962
0.128962
0.128962
0.130429
0.989983
0.130308
0.128962
0.128962
0.929106
0.128962
0.128962
0.989963
0.128962
0.99044
0.128962
0.128962
0.128962
0.00740262
0.128962
0.128962
0.128962
0.128962
0.975512
0.129907
0.138908
0.128962
0.128962
0.128962
0.128962
0.128962
0.128962
0.128962
0.128962
0.130042
0.128962
0.128962
0.128962
0.128962
0.128962
0.128962
0.583926
0.128962
0.130242
0.128962
0.128962
0.130305
0.145587
0.128962
0.128962
0.128962
0.128962
0.129497
0.128962
0.128962
0.128962
0.99087
0.128962
0.989896
0.128962
0.128962
0.128962
0.128962
0.960517
0.988874
0.128962
0.98917
0.128962
0.128962
0.128962
0.989476
0.128962
0.128962
0.128962
0.957582
0.134815
0.128666
0.130705
0.128962
0.130285
0.988197
0.128962
0.128962
0.128962
0.128961
0.128958
0.128962
0.128962
0.128962
0.128962
0.128962
0.128962
0.96546
0.128962
0.128962
0.128962
0.130381
0.98715
0.128962
0.989813
0.128962
0.128949
0.128962
0.128962
0.128962
0.128962
0.12896
0.13013
0.130167
0.128962
0.128962
0.990534
0.233373
0.128962
0.128962
0.136363
0.128962
0.128962
0.990321
0.128962
0.128962
0.128962
0.128962
0.128962
0.128962
0.990076
0.128962
0.128962
0.128962
0.12896
0.128962
0.128962
0.128962
0.128962
0.128962
0.128962
0.988165
0.128962
0.128962
0.128962
0.128962
0.128962
0.128962
0.990934
0.128962
0.987091
0.128962
0.140947
0.128962
0.130228
0.128962
0.128962
0.128962
0.128958
0.128939
0.128962
0.128962
0.128963
0.12896
0.128962
0.130282
0.128962
0.263529
0.128962
0.988941
0.128958
0.618727
0.128962
0.988746
0.128962
0.128962
0.130019
0.371264
0.128962
0.128962
0.128962
0.128962
0.128962
0.128962
0.128962
0.128962
0.990179
0.128962
0.128962
0.99081
0.128962
0.128962
0.128962
0.128962
0.128974
0.128962
0.128962
0.128962
0.126084
0.128962
0.129377
0.128962
0.128962
0.128962
0.128962
0.128962
0.128962
0.128962
0.991325
0.128962
0.128962
0.128962
0.128962
0.99296
0.989459
0.128962
0.128962
0.128962
0.128962
0.128962
0.128962
0.990043
0.128962
0.128962
0.988409
0.990617
0.989892
0.128962
0.128959
0.128962
0.989599
0.128962
0.128962
0.130056
0.128962
0.128962
0.128962
0.128962
0.128962
0.128962
0.493675
0.128962
0.128962
0.128962
0.128962
0.128962
0.129982
0.128962
0.361142
0.128962
0.130148
0.128962
0.990023
0.130159
0.128962
0.128962
0.130053
0.128962
0.99012
0.99016
0.128962
0.128962
0.128962
0.128962
0.128962
0.128962
0.128962
0.128962
0.128962
0.128962
0.128962
0.128962
0.128962
0.128962
0.128962
0.128962
0.128962
0.807346
0.128962
0.128962
0.128962
0.12896
0.128962
0.128962
0.130353
0.128962
0.13005
0.987371
0.128962
0.128962
0.128962
0.128962
0.128962
0.128962
0.128962
0.128962
0.13742
0.128962
0.989302
0.128962
0.130297
0.918573
0.128962
0.128962
0.128962
0.128962
0.128962
0.128962
0.128962
0.128962
0.990413
0.130119
0.990904
0.128962
0.351687
0.13394
0.990608
0.130276
0.220072
0.130073
0.99084
0.128962
0.128962
0.1295
0.128962
0.129947
0.128962
0.128962
0.128962
0.128962
0.128954
0.129877
0.128962
0.128962
0.130183
0.128962
0.128962
0.128962
0.130354
0.128962
0.128962
0.128962
0.128962
0.128962
0.990639
0.128962
0.128962
0.128962
0.130374
0.130156
0.128962
0.128962
0.990773
0.990191
0.128962
0.128962
0.128962
0.128962
0.130135
0.128962
0.13686
0.990734
0.128962
0.128962
0.991373
0.128962
0.128962
0.13008
0.128962
0.129533
0.128962
0.989601
0.130295
0.988564
0.990305
0.128962
0.128962
0.130217
0.12896
0.128962
0.990203
0.130165
0.991697
0.129889
0.128962
0.12896
0.130157
0.128962
0.98991
0.128962
0.989351
0.128962
0.128962
0.130132
0.130251
0.12896
0.829725
0.964113
0.135454
0.128961
0.128962
0.128955
0.990691
0.128962
0.128962
0.128962
0.991088
0.925798
0.992025
0.13322
0.128962
0.128962
0.129903
0.862991
0.128962
0.591444
0.128603
0.128962
0.128982
0.128962
0.128962
0.128962
0.128962
0.128962
0.990301
0.134034
0.128962
0.130383
0.128962
0.826103
0.988811
0.128962
0.128962
0.128962
0.128962
0.259398
0.135674
0.128962
0.128962
0.128962
0.989459
0.253158
0.991913
0.128962
0.128962
0.128962
0.137297
0.991361
0.98959
0.965904
0.988877
0.128962
0.128961
0.988835
0.128962
0.131963
0.128962
0.130146
0.128962
0.128962
0.130171
0.130054
0.128962
0.128962
0.128962
0.128962
0.991276
0.130317
0.128962
0.128962
0.134236
0.128962
0.130517
0.964028
0.991939
0.128962
0.128962
0.135962
0.963342
0.231191
0.128962
0.224424
0.99191
0.124721
0.128962
0.198906
0.128962
0.128962
0.128962
0.128962
0.128962
0.219936
0.13018
0.128962
0.128962
0.128962
0.128962
0.128962
0.128962
0.128962
0.255651
0.991454
0.128962
0.128962
0.109239
0.238534
0.932291
0.128962
1.02503
0.128962
0.128962
0.128962
0.136938
0.990459
0.128962
0.130102
0.128962
0.985872
0.128962
0.128962
0.128962
0.128962
0.977255
0.128962
0.128962
0.136887
0.133892
0.128962
0.128962
0.128962
0.99002
0.993062
0.128962
0.989443
0.13011
0.128962
0.128962
0.128928
0.128893
0.128962
0.991482
0.128941
0.128962
0.128962
0.128962
0.128962
0.130228
0.130158
0.128962
0.128962
0.139753
0.128962
0.128397
0.128962
0.128962
0.966713
0.128886
0.12897
0.13538
0.128962
0.128962
0.129972
0.13008
0.135783
0.87174
0.128873
0.134449
0.128962
0.128962
0.128888
0.128962
0.168595
0.128962
0.128962
0.992829
0.880845
0.128962
0.128962
0.128962
0.128962
0.128962
0.128962
0.128962
0.128962
0.128962
0.991205
0.128962
0.128962
0.128962
0.992967
0.128962
0.128962
0.128962
0.987862
0.128962
0.128962
0.128962
0.128962
0.128962
0.128962
0.128962
0.128962
0.128962
0.128962
0.128962
0.129471
0.128962
0.13021
0.129458
0.130346
0.128962
0.130181
0.130185
0.987612
0.128962
0.128962
0.129915
0.148021
0.128962
0.987467
0.130068
0.128962
0.128962
0.128962
0.128962
0.128962
0.990874
0.128962
0.128962
0.128962
0.130279
0.988593
0.128962
0.130092
0.128962
0.129957
0.13975
0.128954
0.129999
0.128962
0.991116
0.128962
0.128962
0.128962
0.128962
0.128962
0.128962
0.983547
0.128962
0.128962
0.990591
0.130092
0.128962
0.128962
0.128962
0.991312
0.130396
0.990632
0.128962
0.989785
0.987199
0.130174
0.128962
0.129901
0.128962
0.130375
0.128962
0.128962
0.130246
1.06855
0.989923
0.128962
0.128931
0.128962
0.988678
0.128962
0.128962
0.128962
0.128962
0.128962
0.128962
0.128962
0.128962
0.128962
0.128962
0.128962
0.128962
0.990906
0.128962
0.966293
0.128962
0.128962
0.130156
0.133247
0.128962
0.128962
0.130262
0.128962
0.128962
0.128962
0.130398
0.993185
0.128962
0.128962
0.128962
0.128962
0.128962
0.128962
0.128962
0.128962
0.305296
0.128962
0.290798
0.128962
0.128962
0.128962
0.128962
0.12999
0.128962
0.128962
0.128962
0.128962
1.07226
0.128962
0.128962
0.990484
0.128962
0.98957
0.128962
0.128925
0.128962
0.128962
0.992056
0.128958
0.128962
0.128962
0.12896
0.129889
0.128962
0.128962
0.128962
0.128962
0.128962
0.989086
0.962495
0.989102
0.128962
0.98975
0.128962
0.128962
0.128962
0.128962
0.129477
0.128962
0.128962
0.128962
0.128962
0.128962
0.128962
0.128962
0.128962
0.128962
0.132032
0.130116
0.128962
0.96337
0.614714
0.128962
0.128962
0.923928
0.128962
0.128962
0.128962
0.987065
0.128962
0.128962
0.988912
0.130209
0.128962
0.128962
0.128962
0.128962
0.129466
0.962401
0.128962
0.128962
0.989445
0.128962
0.128962
0.925562
0.128962
0.128962
0.128962
0.128962
0.989516
0.128962
0.128962
0.128962
0.128962
0.130019
0.128962
0.989433
0.130151
0.128946
0.128962
0.128962
0.128962
0.128962
0.128962
0.128962
1.04989
0.9644
0.129859
0.131319
0.128962
0.129995
0.128962
0.128962
0.128962
0.128962
0.128962
0.128962
0.128962
0.128962
0.128962
0.128962
0.84568
0.128962
0.992413
0.128962
0.991031
0.991284
0.128962
0.130045
0.99009
0.135307
0.128895
0.125883
0.128962
0.128962
0.128962
0.128962
0.320511
0.128962
0.585877
0.234543
0.135031
0.142265
0.12948
0.128959
0.128962
0.128962
0.617096
0.128962
0.128958
0.128962
0.128962
0.128962
0.128962
0.126845
0.128962
0.989679
0.13019
0.144378
0.986569
0.990279
0.130063
0.128962
0.128962
0.128962
0.128962
0.128962
0.128962
0.128962
0.128962
0.914983
0.130362
0.128962
0.12897
0.128962
0.128962
0.128962
0.128962
0.141253
0.977469
0.128962
0.128962
0.128962
0.989446
0.948286
0.128962
0.128962
0.989927
0.839049
0.128962
0.128962
0.142658
0.991556
0.128962
0.128962
0.128962
0.128962
0.128961
0.128962
0.98749
0.128962
0.128962
0.128962
0.128962
0.128962
0.132154
0.128962
0.128962
0.204863
0.959212
0.989108
0.128962
0.12896
0.141474
0.128962
0.128962
0.128962
0.991916
0.128961
0.128962
0.129768
0.128962
0.128962
0.128962
0.128962
0.128962
0.128962
0.128962
0.128962
0.128945
0.128962
0.128962
0.128962
0.137947
0.129565
0.129385
0.128961
0.128962
0.12895
0.987378
0.128962
0.991784
0.984557
0.128962
0.128962
0.128962
0.128962
0.128962
0.270015
0.989932
0.128962
0.128962
0.128962
0.128962
0.128962
0.128962
0.128962
0.128962
0.922316
0.128962
0.128962
0.131313
0.128962
0.128962
0.128955
0.954224
0.128962
0.128962
0.128962
0.943815
0.128951
0.988606
0.128962
0.128962
0.128962
0.236073
0.128958
0.130054
0.128962
0.155401
0.128962
0.132728
0.128962
0.128962
0.949368
0.130546
0.128962
0.135157
0.128962
0.128962
0.903309
0.139159
0.128961
0.128962
0.128962
0.128962
0.128962
0.128962
0.128962
0.128962
0.128962
0.128962
0.128961
0.128962
0.128962
0.116616
0.128962
0.128961
0.128961
0.128962
0.128962
0.12896
0.128962
0.128962
0.137028
0.128962
0.128953
0.964046
0.130692
0.128959
0.128962
0.990489
0.128962
0.128962
0.128962
0.545282
0.130037
0.128962
0.280213
0.990438
0.128962
0.245617
0.128962
0.914065
1.08143
0.128962
0.128962
0.128962
0.128961
0.128962
0.128962
0.701062
0.128962
0.128953
0.128962
0.130203
0.129393
0.128962
0.128962
0.128962
0.977466
0.128962
0.128962
0.128962
0.923875
0.128962
0.996511
0.508124
0.128962
0.684754
0.839394
0.157698
0.128962
0.128961
0.438473
0.128962
0.990815
0.128961
0.128962
0.12984
0.128962
0.128961
0.128962
0.128962
0.13004
0.128962
0.989234
0.128962
0.130081
0.990891
0.882792
0.128962
0.128961
0.130203
0.991532
0.60782
0.128962
0.128962
0.821337
0.128961
0.130228
0.128962
0.991196
0.128962
0.129894
0.592413
0.13007
0.128962
0.989532
0.20066
0.128962
0.128951
0.128962
0.128962
0.128962
0.128962
0.972566
0.130004
0.128962
0.869823
0.986635
0.128962
0.128962
0.457551
0.128962
0.128962
0.128962
0.128961
0.128962
0.128962
0.128955
0.128962
0.555547
0.848562
0.128962
0.989285
1.04766
0.131835
0.130827
0.128962
0.953471
0.12896
0.860908
0.128956
0.128935
0.130291
0.128961
0.128962
0.128949
0.128962
0.989039
0.128962
0.128962
0.128962
0.130239
0.129407
0.953287
0.950084
0.130227
0.128962
0.128956
0.988706
0.128962
0.128962
0.942155
0.164281
0.128962
0.991685
0.128962
0.128962
0.128962
0.991721
0.128962
0.128962
0.128962
0.142722
0.130132
0.128962
0.130011
0.128962
0.128962
0.943295
0.128962
0.988937
0.990106
0.128962
0.139323
0.128962
0.9609
0.153247
0.128962
0.130547
0.142583
0.128962
0.128962
0.128962
0.589642
0.128962
0.128962
0.128962
0.1304
0.128962
0.128962
0.128962
0.128962
0.128962
0.128962
0.128962
0.128962
0.128962
0.128962
0.128962
0.128961
0.128962
0.128962
0.128942
0.128962
0.128962
0.128962
0.128962
0.128962
0.13031
0.128962
0.128962
0.128962
0.128962
0.128962
0.182898
0.84681
0.130316
0.987345
0.128959
0.128962
0.128962
0.128956
0.128958
0.13017
0.990871
0.128962
0.128962
0.139154
0.130192
0.128959
0.129997
0.130513
0.129849
0.128962
0.128957
0.128962
0.128962
0.13006
0.128956
0.974366
0.987111
0.128958
0.130076
0.129983
0.130744
0.128962
0.128962
0.128961
0.13003
0.144434
0.128962
0.128929
0.128962
0.128962
0.128962
0.128964
0.128962
0.12896
0.128962
0.128962
0.130231
0.128962
0.976956
0.128962
0.128962
0.128962
0.128961
0.128962
0.128962
0.866951
0.128962
0.128962
0.128962
0.128962
0.128962
0.128962
0.128962
0.128962
0.128962
0.128962
0.128964
0.977081
0.128962
0.128962
0.128962
0.128962
0.128962
0.128962
0.128961
0.128962
0.128962
0.128962
0.130163
0.986793
0.128962
0.128962
0.128962
0.128947
0.128962
0.128962
0.128962
0.128962
0.128962
0.990139
0.128962
0.128962
0.128962
0.128933
0.128962
0.128962
0.128962
0.990171
0.128962
0.128962
0.128962
0.128962
0.128962
0.128962
0.128962
0.128962
0.128962
0.128962
0.13319
0.128962
0.128962
0.128958
0.128957
0.128958
0.128962
0.128956
0.128962
0.129987
0.128962
0.128956
0.128959
0.128962
0.128962
0.128962
0.128962
0.128959
0.128961
0.128962
0.128962
0.128962
0.128962
0.128962
0.925169
0.128962
0.12895
0.128958
0.128962
0.128962
0.97341
0.128962
0.128962
0.128962
0.128962
0.989184
0.128962
0.128958
0.128962
0.128962
0.128962
0.99075
0.130032
0.128962
0.128962
0.128962
0.128962
0.128962
0.128962
0.128961
0.128962
0.128962
0.128962
0.130165
0.128962
0.879333
0.992965
0.128962
0.902278
0.919806
0.130063
0.128962
0.128962
0.990539
0.128962
0.270588
0.935421
0.128962
0.128962
0.130667
0.128962
0.128962
0.128962
0.128962
0.130247
0.132545
0.128962
0.128962
0.128975
0.128962
0.128962
0.128962
0.128962
1.05665
0.989753
0.128961
0.128962
0.128962
0.128962
0.128953
0.128962
0.918918
0.128953
0.130215
0.128962
0.128962
0.128962
0.128962
0.128949
0.128956
0.128962
0.128962
0.128962
0.128962
0.989003
0.128962
0.990999
0.128962
0.990937
0.130261
0.128962
0.128962
0.128962
0.128962
0.128962
0.128962
0.128962
0.128962
0.988687
0.128962
0.128962
0.962792
0.128962
0.128962
0.128962
0.128962
0.128962
0.128962
0.128953
0.128962
0.128962
0.128962
0.990986
0.128962
0.128938
0.128951
0.128956
0.990152
0.130033
0.0945187
0.128962
0.989238
0.128962
0.128962
0.130267
0.967923
0.941406
0.130526
0.128962
0.989919
0.142682
0.128962
0.128962
0.128962
0.128962
0.128962
0.128962
0.129965
0.88162
0.128962
0.128961
0.139046
0.128962
0.128962
0.128962
0.128962
0.128962
0.128962
0.128962
0.130274
0.128962
0.128962
0.128962
0.142724
0.128962
0.128962
0.99102
0.128962
0.130195
0.128962
0.128962
0.130205
0.130342
0.128962
0.991564
0.128962
0.12896
0.128962
0.128962
0.128962
0.128962
0.128962
0.128962
0.128962
0.128964
0.128962
0.128962
0.128962
0.128962
0.128962
0.128962
0.128962
0.128962
0.991039
0.128962
0.128962
0.128962
0.128962
0.128962
0.128962
0.293965
0.128962
0.128962
0.987899
0.128962
0.128962
0.128962
0.128962
0.131236
0.91391
0.128962
0.128962
0.128958
0.128962
0.128962
0.128962
0.16594
0.128962
0.128962
0.128962
0.128966
0.129977
0.128962
0.130222
0.128962
0.991494
0.130023
0.128962
0.128962
0.128962
0.128962
0.128962
0.128962
0.128962
0.128962
0.130339
0.128962
0.128962
0.128962
0.99077
0.128961
0.128962
0.128962
0.130511
0.128962
0.136899
0.988931
0.143678
0.128962
0.128962
0.130318
0.128962
0.128962
0.128962
0.14016
0.987285
0.13027
0.989756
0.991578
0.128962
0.128962
0.991995
0.128962
0.128962
0.926892
0.130037
0.128962
0.128962
0.128962
0.128962
0.128962
0.128962
0.128962
0.128962
0.992869
0.128962
0.128962
0.128962
0.128962
0.128962
0.95454
0.909583
0.130326
0.128962
0.130109
0.130653
0.128962
0.128962
0.128962
0.128962
0.98997
0.300492
0.128962
0.128937
0.128962
0.128962
0.980184
0.98798
0.128962
0.128962
0.128962
0.128962
0.128962
0.128962
0.128962
0.128962
0.128962
0.868834
0.991411
0.128962
0.128962
0.128952
0.128962
0.12896
0.128962
0.130057
0.128962
0.128962
0.128962
0.128484
0.958127
0.128962
0.128962
0.128962
0.128962
0.128962
0.128962
0.992051
0.129975
0.128961
0.988279
0.128962
0.128961
0.128962
0.128962
0.128962
0.128962
0.128962
0.128962
0.990047
0.128962
0.132452
0.128962
0.128962
0.128962
0.298833
0.128962
0.128962
0.960338
0.990182
0.128962
0.128962
0.128962
0.128962
0.128963
0.128962
0.990822
0.128962
0.128962
0.128962
0.128961
0.128962
0.128962
0.128962
0.128962
0.128962
0.128962
0.128955
0.128962
0.128962
0.129833
0.128962
0.128962
0.128962
0.128962
0.128962
0.131371
0.128962
0.128962
0.128962
0.12896
0.297357
0.128962
0.128962
0.308659
0.128962
0.128962
0.138986
0.128962
0.860767
0.858777
0.14104
0.989758
0.128962
0.128962
0.128962
0.128962
0.128962
0.989125
0.128962
0.988147
0.128962
0.128709
0.131731
0.128962
0.12895
0.128962
0.128962
0.128962
0.325113
0.990914
0.128962
1.05012
0.128962
0.128962
0.128962
0.128962
0.128962
0.128962
0.128955
0.989743
0.128962
0.128962
0.128962
0.128962
0.128958
0.128962
0.128959
0.128962
0.128962
0.128962
0.130011
0.128962
0.12896
0.128947
0.128962
0.128962
0.128962
0.128962
0.128962
0.128962
0.128962
0.145187
0.128962
0.128962
0.128962
0.128962
0.12896
0.144463
0.128952
0.128962
0.128959
0.128962
0.128962
0.128962
0.128961
0.128962
0.128962
0.128962
0.129566
0.196147
0.128962
0.128962
0.990642
0.990775
0.128943
0.128962
0.128962
0.139523
0.41563
0.131004
0.128961
0.353904
0.128962
0.128962
0.128959
0.128962
0.128962
0.130104
0.128961
0.128962
0.128963
0.990126
0.12896
0.128962
0.152984
0.128959
0.128962
0.128962
0.12896
0.128962
0.128962
0.128962
0.128962
0.128962
0.128962
0.128962
0.672409
0.128962
0.128962
0.128962
0.128962
0.129826
0.144092
0.128962
0.128962
0.128962
0.128964
0.128956
0.128962
0.128962
0.128962
0.128962
0.128962
0.128962
0.128962
0.128956
0.128962
0.135847
0.128962
0.128962
0.128962
0.128962
0.128962
0.128961
0.128962
0.128962
0.128962
0.128962
0.128962
0.128962
0.128962
0.128962
0.128962
0.128962
0.128953
0.128961
0.128923
0.130108
0.128913
0.130138
0.130489
0.128962
0.128962
0.130126
0.128962
0.129941
0.128962
0.128962
0.128962
0.130028
0.128962
0.128962
0.130404
0.128962
0.128962
0.128962
0.128962
0.128962
0.128962
0.987078
0.128962
0.128962
0.128961
0.128962
0.128959
0.128955
0.989849
0.12896
0.989666
0.128954
0.989965
0.128962
0.128962
0.128962
0.988218
0.128962
0.128965
0.128962
0.128962
0.128962
0.128962
0.128962
0.128962
0.128962
0.128962
0.128962
0.990657
0.128962
0.128962
0.128959
0.128962
0.128962
0.128959
0.988379
0.128962
0.128962
0.128962
0.992573
0.128978
0.128961
0.128953
0.128961
0.128962
0.128962
0.128962
0.128962
0.128962
0.128962
0.129994
0.128962
0.128962
0.128962
0.128962
0.128962
0.128962
0.128962
0.128962
0.128961
0.128964
0.128961
0.13135
0.231791
0.128962
0.128962
0.12896
0.128962
0.128962
0.128957
0.130179
0.128962
0.128962
0.130368
1.05446
0.93301
0.128962
0.128962
0.130105
0.128961
0.128962
0.128962
0.128962
0.128963
0.128961
0.128962
0.13065
0.128962
0.128962
0.128962
0.128962
0.128962
0.128962
0.128962
0.128962
0.128962
0.128962
0.128962
0.128962
0.128962
0.128962
0.128962
0.142643
0.128962
0.12896
0.128962
0.99024
0.990782
0.128962
0.128962
0.128962
0.128962
0.128962
0.963585
0.978147
0.988388
0.128962
0.12896
0.136389
0.128962
0.128961
0.130069
0.128963
0.128962
0.128959
0.128972
0.128962
0.128962
0.128962
0.128962
0.128962
0.989264
0.128962
0.131256
0.128962
0.128962
0.128962
0.128962
0.128962
0.128962
0.128962
0.128962
0.128962
0.992906
0.128962
0.128962
0.128962
0.128962
0.128962
0.128962
0.128962
0.989006
0.128962
0.128962
0.128962
0.12896
0.128962
0.128962
0.128962
0.128962
0.128962
0.128962
0.128962
0.128962
0.128962
0.910661
0.969217
0.128962
0.128962
0.128962
0.128962
0.128962
0.99265
0.139819
0.128752
0.990439
0.128962
0.128962
0.128962
0.128962
0.128962
0.128962
0.128962
0.6223
0.128962
0.903161
0.128962
0.128962
0.128962
0.129785
0.128962
0.99151
0.128962
0.131524
0.128962
0.128962
0.128962
0.128962
0.128962
0.128952
0.128962
0.128962
0.128962
0.128952
0.128962
0.128962
0.132474
0.128962
0.128962
0.128962
0.128962
0.128962
0.128962
0.128962
0.128962
0.128962
0.128962
0.131517
0.128962
0.128962
0.128962
0.13045
0.13025
0.946526
0.128958
0.128962
0.128962
0.128962
0.133721
0.128958
0.128962
0.128962
0.128911
0.12896
0.128962
0.965523
0.128962
0.128962
0.988048
0.989243
0.128962
0.128962
0.128962
0.128962
0.991512
0.128962
0.128958
0.128962
0.128962
0.900833
0.484681
0.128962
0.128958
0.128952
0.128962
0.128962
0.130202
0.128962
0.133044
0.130011
0.12994
0.130282
0.128962
0.128962
0.141945
0.131623
0.128962
0.128962
0.128962
0.128962
0.128962
0.128962
0.989354
0.894807
0.684873
0.128962
0.128962
0.128962
0.128962
0.128962
0.128962
0.128962
0.128962
0.142644
0.128962
0.986289
0.989694
0.128962
0.128962
0.128962
0.128957
0.128962
0.128962
0.128962
0.992269
0.128962
0.128962
0.128962
0.128962
0.128962
0.135063
0.128962
0.128962
0.867426
0.128961
0.128962
1.09567
0.128962
0.128962
0.128962
0.128962
0.992331
0.128962
0.128962
0.128962
0.128962
0.128962
0.128962
0.130407
0.128962
0.128962
0.128962
0.128962
0.128962
0.128962
0.128962
0.128962
0.130456
0.988496
1.03692
0.128962
0.128962
0.129972
0.128962
0.130466
0.990238
0.128962
0.130224
0.977826
0.128962
0.130002
0.128962
0.128962
0.145437
0.943396
0.128962
0.130208
0.129968
0.984851
0.128962
0.128962
0.128962
0.128957
0.128962
0.128962
0.133237
0.128962
0.128962
0.130268
0.956924
0.309411
0.128962
0.985187
0.128962
0.985202
0.128962
0.128962
0.990792
0.128962
0.130449
0.128961
0.128962
0.13036
0.128959
0.128962
0.143368
0.128962
0.99118
0.142436
0.128962
0.128962
0.128962
0.969003
0.128961
0.128962
0.128962
0.128962
0.128956
0.128962
0.128962
0.128961
0.128961
0.129968
0.128962
0.128962
0.128962
0.990826
0.128962
0.128962
0.128962
0.965139
0.128962
0.128962
0.128962
0.13015
0.128962
0.128962
0.128958
0.12896
0.128962
0.128962
0.989636
0.137552
0.128962
0.98166
0.129933
0.130009
0.122331
0.128962
0.128962
0.130059
0.128962
0.128962
0.128962
0.128962
0.773869
0.128962
0.128954
0.962072
0.128962
0.986493
0.128962
0.128962
0.128962
0.12896
0.986551
0.128961
0.989227
0.128962
0.128962
0.990436
0.128962
0.128962
0.989256
0.971401
0.128962
0.128962
0.128962
0.128962
0.130286
0.989399
0.128962
0.907251
0.128962
0.128962
0.966363
0.991256
0.128961
0.128962
0.993815
0.128947
0.13294
0.128961
0.128962
0.128962
0.128962
0.128962
0.130043
0.130485
0.128962
0.128962
0.128961
0.146208
0.130272
0.128951
0.989182
0.128946
0.129989
0.128962
0.128962
0.128961
0.129961
0.990277
0.128962
0.128962
0.135193
0.128962
0.128962
0.128962
0.128962
0.128962
0.130034
0.989325
0.128962
0.128962
0.128942
0.128943
0.130021
0.128962
0.128962
0.128962
0.128962
0.86021
0.128962
0.990809
0.990985
0.128962
0.128962
0.128956
0.128949
0.993217
0.990803
0.128962
0.130381
0.990984
0.128962
0.128962
0.128962
0.128947
0.128962
0.128962
0.128962
0.128962
0.130195
0.128962
0.128962
0.128953
0.129486
0.130591
0.128962
0.989337
0.991108
0.128957
0.128962
0.128962
0.143826
0.128962
0.128962
0.128962
0.992325
0.128962
0.130294
0.992344
0.128962
0.128962
0.989555
0.128962
0.128962
0.129015
0.991945
0.128962
0.991735
0.128962
0.128962
0.128962
0.128962
0.128962
0.142627
0.128962
0.99142
0.130155
0.128962
0.128962
0.868009
0.128962
0.98779
0.130068
0.128962
0.128962
0.128962
0.128962
0.129974
0.989812
0.128962
0.130248
0.989297
0.128962
0.128962
0.130083
0.128962
0.128962
0.130121
0.130038
0.128962
0.128962
0.128962
0.988848
0.130205
0.990489
0.990836
0.128962
0.991869
0.128962
0.128962
0.128962
0.128962
0.128962
0.128962
0.128962
0.128962
0.130074
0.128962
0.130195
0.128962
0.128962
0.139277
0.883976
0.129973
0.139238
0.128962
0.843228
0.128962
0.128962
0.128962
0.128962
0.988406
0.128962
0.991114
0.128962
0.128962
0.128962
0.128962
0.130206
0.129971
0.988879
0.991999
0.128962
0.128962
0.128973
0.128959
0.128962
0.128962
0.128962
0.992441
0.128962
0.990273
0.128962
0.128962
0.128962
0.128962
0.128962
0.130016
0.991065
0.99228
0.128962
0.128962
0.130142
0.128962
0.989779
0.128962
0.128962
0.128962
0.130263
0.130058
0.130232
0.128962
0.129955
0.990034
0.128962
0.128962
0.128962
0.990268
0.128962
0.128962
0.128962
0.128962
0.128962
0.990991
0.130484
0.128962
0.128962
0.993501
0.128962
0.128962
0.987425
0.987313
0.130322
0.128962
0.128962
0.130292
0.128962
0.128962
0.128962
0.128962
0.128962
0.128962
0.128962
0.128962
0.128962
0.128962
0.128962
0.128962
0.128961
0.128962
0.128953
0.128953
0.128962
0.98731
0.128961
0.128962
0.130118
0.12896
0.128962
0.989091
0.128962
0.956304
0.12896
0.130274
0.128961
0.243491
0.128962
0.128962
0.128962
0.128962
0.135144
0.128962
0.12896
0.128961
0.876027
0.128962
0.128962
0.12896
0.128933
0.135536
0.128942
0.128962
0.128962
0.128962
0.69864
0.128961
0.128962
0.130167
0.128962
0.128962
0.128962
0.990973
0.128962
0.130224
0.128962
0.128962
0.128962
0.128962
0.128963
0.129928
0.128962
0.152722
0.951825
0.98905
0.128962
0.989203
0.128941
0.992485
0.129732
0.128962
0.128962
0.129904
0.13118
0.13027
0.128962
0.130287
0.13596
0.128962
0.128962
0.990812
0.128962
0.968394
0.130009
0.128962
0.990892
0.128962
0.128962
0.129994
0.13027
0.99022
0.128875
0.141186
0.128962
0.989782
0.130238
0.128962
0.128962
0.130227
0.987982
0.128962
0.128962
0.128962
0.987204
0.129946
0.989795
0.861921
0.925211
0.128948
0.991437
0.990781
0.128962
0.128962
0.128962
0.128961
0.128962
0.130174
0.130922
0.129606
0.128948
0.12896
0.904861
0.128962
0.128948
0.12895
0.128962
0.128962
0.130249
0.128962
0.128962
0.128962
0.128863
0.128962
0.128962
0.128962
0.128962
0.128945
0.133938
0.128962
0.128962
0.990021
0.128962
0.128962
0.135451
0.989305
0.130011
0.961638
0.128962
0.130077
0.128958
0.128962
0.128962
0.990235
0.130099
0.128964
0.128962
0.128951
0.99115
0.989419
0.128962
0.128962
0.128962
0.128962
0.863896
0.130062
0.128962
0.128962
0.128962
0.128962
0.128962
0.128962
0.131053
0.128962
0.128962
0.128962
0.128962
0.128962
0.128962
0.128962
0.128962
0.128954
0.128962
0.145566
0.988254
0.128962
0.973405
0.62717
0.128963
0.910056
0.133672
0.128959
0.143132
0.128959
0.128962
0.128962
0.128962
0.13148
0.128962
0.128962
0.970748
0.128962
0.128959
0.128988
0.128962
0.128962
0.128962
0.128962
0.142614
0.128963
0.128962
0.977443
0.128962
0.128962
0.128962
0.128962
0.128934
0.128956
0.128962
0.128962
0.128962
0.128962
0.128962
0.12896
0.132061
0.12896
0.128962
0.919432
0.128962
0.961754
0.128909
0.148306
0.903888
0.12619
0.128962
0.128962
0.128957
0.128956
0.128962
0.128962
0.943329
0.128962
0.128962
0.128962
0.12896
0.990185
0.128962
0.128962
0.128962
0.920144
0.134357
0.128962
0.128962
0.128962
0.130086
0.128962
0.128962
0.128962
0.920806
0.128939
0.950421
0.128962
0.840289
0.137176
0.128962
0.128962
0.128962
0.130466
0.128962
0.128962
0.862388
0.128964
0.953286
0.128962
0.136128
0.130174
0.128962
0.128952
0.970142
0.95054
0.136391
0.989636
0.128962
0.128962
0.128962
0.128962
0.128962
0.128962
0.130519
0.128962
0.946638
0.134578
0.128962
0.128962
0.128962
0.128962
0.130332
0.128962
0.309537
0.128962
0.128962
0.128962
0.128962
0.134298
0.963386
0.128962
0.137901
0.128962
0.128962
0.140658
0.84832
0.128962
0.128961
0.862001
0.128962
0.128962
0.128962
0.969848
0.128961
0.128954
0.132781
0.132169
0.128962
0.128962
0.133153
0.128962
0.128962
0.128954
0.959386
0.128961
0.128965
0.128957
0.882783
0.128962
0.128962
0.128945
0.128963
0.12896
0.128962
0.128962
0.128962
0.128957
0.128969
0.128947
0.128962
0.12897
0.944514
0.129916
0.135415
0.96375
0.128962
0.130129
0.991234
0.128962
0.128961
0.130373
0.128961
0.134008
0.128962
0.128953
0.128962
0.128962
0.935564
0.128962
0.901547
0.128962
0.128962
0.990252
0.128962
0.128962
0.990233
0.128959
0.128962
0.970625
0.128962
0.128962
0.128962
0.130068
0.128962
0.128962
0.128962
0.128962
0.992579
0.128962
0.128962
0.128962
0.128962
0.907684
0.128962
0.128962
0.128962
0.128962
0.128961
0.128962
0.128962
0.128962
0.91768
0.128961
0.128962
0.128961
0.128962
0.128962
0.989173
0.128938
0.128962
0.128962
0.128962
0.128962
0.128958
0.128962
0.128962
0.128957
0.128956
0.127975
0.128962
0.128962
0.128962
0.128962
0.130013
0.128962
0.979351
0.128962
0.128962
0.128962
0.128962
0.13381
0.130513
0.128962
0.975918
0.923805
0.128962
0.128962
0.137824
0.136098
0.138633
0.904929
0.128952
0.128962
0.128962
0.128962
0.128962
0.128956
0.305345
0.128962
0.128962
0.13063
0.128962
0.128962
0.128961
0.128962
0.138163
0.130426
0.128962
0.130119
0.128962
0.128962
0.128962
0.128962
0.96766
0.960517
0.128961
0.128932
0.128962
0.128962
0.128962
0.128962
0.128962
0.128962
0.131555
0.128962
0.128962
0.128962
0.128962
0.854922
0.128955
0.128962
0.12896
0.145547
0.128962
0.132922
0.128962
0.142202
0.128962
0.128962
0.131131
0.986623
0.128952
0.973087
0.868451
0.134525
0.128961
0.128962
0.128956
0.128962
0.128956
0.128964
0.139192
0.128958
0.12895
0.128962
0.128949
0.133183
0.128962
0.128962
0.128958
0.848279
0.128961
0.923712
0.128962
0.128962
0.128962
0.128962
0.128962
0.947826
0.128962
0.128962
0.128963
0.925345
0.128962
0.128962
0.128962
0.128962
0.128962
0.128962
0.128962
0.128962
0.128962
0.977759
0.128962
0.128962
0.128952
0.128962
0.128962
0.128962
0.128962
0.128962
0.12829
0.128962
0.128962
0.128947
0.128961
0.128962
0.848018
1.03055
0.128962
0.128962
0.956519
0.128961