/*--------------------------------*- C++ -*----------------------------------*\
| =========                 |                                                 |
| \\      /  F ield         | OpenFOAM: The Open Source CFD Toolbox           |
|  \\    /   O peration     | Version:  2312                                  |
|   \\  /    A nd           | Website:  www.openfoam.com                      |
|    \\/     M anipulation  |                                                 |
\*---------------------------------------------------------------------------*/
FoamFile
{
    version     2.0;
    format      ascii;
    arch        "LSB;label=32;scalar=64";
    class       volVectorField;
    location    "0.05";
    object      U;
}
// * * * * * * * * * * * * * * * * * * * * * * * * * * * * * * * * * * * * * //

dimensions      [0 1 -1 0 0 0 0];

internalField   nonuniform List<vector> 
32842
(
(-1.76189e-12 2.39254e-13 -1.40725e-12)
(7.35237e-05 1.79411e-05 -5.12597e-05)
(-1.02022e-14 8.72703e-14 2.0752e-13)
(-2.20677e-13 -1.28982e-13 -1.43607e-14)
(1.38099e-13 1.39605e-13 6.34379e-14)
(-9.47074e-14 4.16191e-16 2.46235e-13)
(-21.6518 6.39728 18.9289)
(32.1196 -1.10979 18.7231)
(-4.96273e-14 3.52539e-14 3.85937e-14)
(-2.64532e-14 1.44134e-13 -1.31446e-13)
(-7.58882 27.5067 7.23942)
(-4.79588 -27.1573 4.23445)
(-1.04725e-13 -1.58224e-13 8.597e-14)
(-6.64498e-14 -1.153e-13 -5.29067e-15)
(-2.50562e-14 1.12952e-13 1.14979e-14)
(-2.84558e-09 -1.43043e-08 -2.23432e-09)
(-8.9291e-16 9.11412e-14 1.48076e-13)
(-2.09676e-13 -6.17512e-14 1.47244e-13)
(-3.23573e-11 -1.29059e-11 -1.3644e-11)
(1.3922e-13 4.3363e-13 -5.37595e-14)
(-1.82259e-14 2.44005e-14 1.5417e-13)
(9.36254e-14 -1.07481e-13 -1.56349e-13)
(-1.46027e-13 6.75458e-14 6.36877e-14)
(-1.70318e-13 4.36693e-13 1.29879e-13)
(-1.0357e-13 -9.95256e-14 4.28591e-16)
(-1.24503e-13 7.18778e-14 7.37361e-14)
(3.87853e-15 -4.21105e-13 -2.48242e-14)
(-2.3836e-14 -8.03901e-14 3.11337e-13)
(19.3136 -0.896787 1.12518)
(-1.02058e-13 -1.51401e-13 -1.93219e-13)
(0.287512 0.0329392 -0.156084)
(2.78223e-14 -8.81331e-14 2.28905e-13)
(3.36619 -17.801 -4.72504)
(2.44763e-15 1.23216e-13 -1.82056e-13)
(-2.10492 -30.1558 -15.4726)
(-6.27616 45.9413 -5.2527)
(-2.16512e-13 3.63095e-14 4.64007e-14)
(1.45129e-14 -2.43152e-13 -1.8655e-13)
(7.49788e-14 1.58269e-13 1.21399e-13)
(-5.62102e-14 2.71633e-15 1.2299e-13)
(-1.00018e-13 2.50452e-14 1.96066e-13)
(1.02379e-13 1.80694e-13 -1.64846e-13)
(-1.0466e-13 -7.66738e-14 -1.81453e-13)
(-2.18537e-13 1.23232e-13 1.48726e-13)
(4.50517e-11 6.57162e-11 7.27282e-11)
(3.44016e-15 7.19313e-14 7.04636e-14)
(-0.232305 -0.00557743 0.129282)
(1.78768e-14 4.40094e-14 8.36803e-15)
(-1.56756e-13 -2.91831e-13 2.19109e-15)
(-18.2004 -4.04585 1.58396)
(4.57094 -27.5359 -8.91467)
(-5.78733e-14 1.24079e-13 -1.92471e-13)
(8.49624e-14 -1.50687e-13 2.38465e-13)
(4.39602 0.201632 0.810271)
(-1.05072e-13 3.30204e-14 -2.46905e-13)
(-8.06764e-05 -0.00016167 0.000265427)
(5.59364e-14 2.99683e-13 1.13095e-13)
(-0.629115 2.10802 -0.0728638)
(2.3071e-14 -3.23936e-15 2.01968e-13)
(-1.76809e-13 1.76547e-14 -1.5162e-13)
(-39.4182 -1.11168 18.6862)
(3.77466e-14 1.35007e-13 1.23315e-13)
(8.34202e-15 2.24879e-14 6.32434e-14)
(-1.96518e-14 5.65966e-15 1.87446e-14)
(-2.67047e-14 -3.87347e-14 -2.64769e-13)
(-0.220746 0.0135319 0.0115087)
(-5.66029e-14 6.89904e-14 -1.55023e-13)
(1.48873e-13 -2.1486e-13 -3.62253e-14)
(3.70384e-13 -1.68852e-13 -3.16351e-14)
(4.24996e-06 7.70191e-07 6.96243e-06)
(6.49457e-14 6.07742e-14 -9.46003e-14)
(-0.00627594 0.00321155 0.000283614)
(2.16057e-13 9.20414e-14 -1.13343e-13)
(-1.06994e-13 4.25906e-14 2.38304e-13)
(-1.55789e-13 -3.92106e-14 -1.09703e-13)
(1.81838e-12 1.50754e-12 5.53103e-13)
(7.33455 3.20541 -2.46801)
(1.77713e-13 1.48269e-13 -1.73036e-13)
(1.18251e-13 -1.73414e-13 8.82261e-14)
(0.01265 -0.0465982 0.00645953)
(4.34761e-14 1.72277e-13 5.30992e-14)
(-2.2344e-13 3.63946e-14 -5.4234e-14)
(-6.58707e-14 -7.73058e-14 -1.27012e-13)
(-3.50588e-14 1.25208e-13 -1.21349e-13)
(2.31143e-13 -1.21382e-13 -2.539e-13)
(1.7651e-14 -2.21373e-13 6.92282e-14)
(-2.5004e-13 -1.04859e-13 -1.54924e-13)
(4.84324e-05 0.000109877 0.000337303)
(3.3695 -18.8931 3.10804)
(-6.38896e-14 1.64771e-13 -1.03827e-13)
(9.87393e-15 8.15503e-14 -1.43085e-13)
(-1.48813e-13 2.1771e-14 -2.05176e-13)
(-0.0192959 -0.00426588 0.00636749)
(-8.89715e-14 3.15493e-14 3.38312e-14)
(-1.40641e-13 -2.38543e-14 3.82782e-15)
(-4.05494e-14 1.62453e-13 -3.66044e-14)
(-1.42556e-13 -2.04652e-13 9.40588e-14)
(-2.02741e-13 7.38841e-14 9.74425e-14)
(2.07922e-13 2.44123e-13 2.02923e-13)
(-1.06671e-13 2.87455e-13 1.18751e-13)
(-9.62208e-14 -5.05388e-14 4.76442e-13)
(5.19704e-14 -1.53203e-13 6.85689e-14)
(-8.40482e-05 3.47669e-05 -5.14784e-06)
(0.0177774 0.000512267 0.00502702)
(-1.94623e-13 2.43175e-13 -1.72092e-14)
(1.14926e-13 -5.59765e-15 7.77207e-14)
(1.75701 16.4412 -1.21459)
(-5.46078e-05 2.0846e-05 -1.47788e-05)
(4.41994e-13 3.68732e-13 -6.55199e-14)
(-7.9855e-07 1.34689e-06 3.85573e-06)
(-7.47195e-14 6.80068e-14 -1.70755e-13)
(-5.72333e-14 6.34671e-14 -1.51567e-13)
(-0.0170776 -0.353017 0.0370681)
(9.53411e-14 6.48855e-14 2.00263e-13)
(-6.3732e-05 -2.61672e-05 3.86539e-05)
(1.15009e-13 6.90144e-14 2.70193e-13)
(-1.97642e-13 1.09919e-13 2.43638e-13)
(0.00642369 -0.00521773 -0.0119639)
(-3.58085e-05 -6.83523e-06 1.63979e-05)
(9.3759e-15 -1.3671e-13 8.19871e-14)
(9.45233e-14 8.83409e-14 -7.57929e-14)
(1.23706e-13 -9.66197e-14 -9.56602e-15)
(2.26594 18.6262 0.1053)
(1.86845e-13 5.43463e-15 1.52375e-13)
(-9.44167e-06 -6.46425e-06 2.14013e-05)
(-2.35336e-13 -2.41413e-13 1.60472e-13)
(2.17777e-14 -4.0382e-14 -7.31635e-14)
(-1.73264e-13 -7.50484e-14 -1.66566e-14)
(-0.0130404 0.0430494 0.00575437)
(-7.08919e-14 7.86288e-14 -2.26749e-13)
(-2.21995e-13 -2.01381e-13 -1.83721e-13)
(-0.000215699 -8.49762e-06 9.31465e-05)
(1.15906e-09 -7.62181e-10 -5.46364e-10)
(-2.00816e-09 -1.87586e-09 7.09733e-10)
(2.47816e-10 3.66125e-11 -5.83228e-11)
(-1.80941e-07 1.70683e-07 -4.55109e-08)
(-0.0008283 -1.16369e-06 0.000179134)
(0.00019354 -0.000294998 0.000828841)
(5.10112e-14 3.45717e-14 2.59716e-13)
(-6.5678e-11 -9.97406e-11 -8.93868e-12)
(-1.60557e-13 -1.38247e-13 -1.28419e-13)
(2.72785e-13 -2.08556e-13 2.10725e-15)
(2.58906e-14 3.13859e-13 1.67682e-13)
(-0.000284024 -0.00199906 0.00183663)
(3.96546e-10 -6.79653e-11 -5.9271e-10)
(-8.46729e-14 -7.00235e-14 -3.31251e-14)
(19.6605 7.09761 6.77365)
(-1.27251e-13 -6.00102e-14 -3.33414e-14)
(-1.43891e-13 1.26398e-13 2.30259e-13)
(1.77645e-13 -1.68062e-14 -1.12489e-13)
(-1.704e-05 -2.59972e-05 5.46029e-05)
(-2.86454e-07 6.78147e-08 4.29778e-07)
(1.73213e-13 1.07556e-13 -2.6361e-13)
(-0.0269753 0.129879 -0.00996363)
(-9.44597e-08 2.0791e-07 1.59459e-07)
(1.62769e-14 -7.88015e-14 -9.47296e-14)
(-7.93141e-14 1.09343e-13 -2.49582e-13)
(1.65224e-13 -1.37393e-13 -5.53594e-14)
(-3.49406e-11 3.39086e-11 -4.10885e-11)
(4.11415e-14 -4.36897e-14 6.78301e-14)
(-8.18173e-12 3.39064e-12 -2.83114e-12)
(3.38906e-14 2.63214e-13 3.45243e-13)
(1.80495e-13 3.04812e-13 -1.21142e-14)
(-1.6105e-13 -6.82134e-14 7.22392e-14)
(4.02604e-07 2.05646e-06 -1.0764e-06)
(1.2992e-13 1.05401e-13 -2.03556e-13)
(7.33228e-14 7.60104e-14 -1.04144e-14)
(-3.19941e-14 9.62144e-14 -3.27051e-14)
(-8.79345e-14 -2.5633e-13 4.8526e-14)
(15.4287 -3.99587 4.16726)
(0.000123384 0.000484487 0.00109855)
(2.72357e-13 -3.5225e-13 6.28612e-14)
(-0.00362205 -0.00113111 0.004988)
(2.46176e-13 -3.33562e-13 -9.48925e-14)
(-5.65087e-14 2.88678e-14 1.13022e-13)
(-0.00165704 0.00841655 0.0191233)
(-8.18938e-15 -2.29741e-14 -2.47203e-13)
(-1.75903e-05 -1.55613e-05 3.04781e-05)
(1.59553e-13 9.61852e-14 -1.10177e-13)
(1.8289e-13 1.17275e-13 -1.76114e-13)
(-2.088e-13 1.36071e-13 -2.60889e-13)
(2.41504e-13 -2.02993e-13 5.74297e-14)
(4.10715e-14 1.19306e-14 1.09931e-13)
(-1.39327e-13 -7.47278e-14 5.18531e-14)
(2.60419e-13 -9.06868e-14 2.35982e-13)
(-7.53176e-14 -1.71153e-13 2.99535e-13)
(1.95285e-13 4.691e-13 1.71412e-12)
(-6.61647e-14 3.84571e-13 -3.04196e-16)
(1.77987e-13 3.77868e-14 2.13584e-14)
(1.05004e-13 -1.34196e-13 7.2181e-14)
(-5.99966e-14 -6.98751e-14 9.64785e-16)
(5.80832e-05 6.49531e-05 3.52602e-05)
(-1.48101e-13 -1.39103e-13 -8.55856e-14)
(-5.89295e-14 1.16281e-13 -7.92327e-14)
(-1.95807e-13 -2.77952e-14 3.03959e-13)
(8.76885e-14 -4.72864e-15 1.29041e-13)
(-1.26702e-13 1.85437e-13 -1.74218e-13)
(3.2468e-15 2.88872e-13 1.05375e-13)
(1.39464e-14 -1.63345e-13 -2.53552e-15)
(3.52443e-14 -8.09909e-14 7.24483e-14)
(1.56558e-13 -1.78839e-13 1.56739e-13)
(-1.26927e-13 -4.36907e-14 -2.04606e-14)
(2.50975e-06 -1.87253e-05 5.93657e-05)
(-0.95522 -0.0927256 0.186964)
(-0.0892679 1.35568 -0.207301)
(-4.76548e-07 -5.61117e-07 -3.73226e-07)
(-1.15635e-13 2.25585e-13 -4.72516e-14)
(2.91517e-13 -2.57286e-13 1.68312e-13)
(2.51794e-13 2.79e-13 1.36554e-13)
(8.78748e-14 -2.06614e-13 -1.62359e-13)
(-2.40536e-12 -1.22152e-11 -3.50286e-12)
(-4.01595e-08 -1.85531e-08 5.59202e-08)
(-0.00555881 0.00287997 0.0160863)
(0.000269843 0.00207544 0.00436208)
(1.50942e-13 1.97138e-13 1.98345e-14)
(-5.49962e-14 -4.52645e-14 -1.79469e-14)
(-5.56475e-14 7.01938e-14 5.85147e-14)
(3.95418e-13 -2.0066e-13 -2.69936e-13)
(-1.07109e-13 -5.39079e-13 -1.77353e-13)
(7.72227e-10 -1.52749e-08 6.54081e-09)
(-0.00278418 -0.00395041 -0.00378169)
(-1.94241e-14 5.9499e-14 -5.4312e-14)
(-5.83543e-14 1.41735e-13 9.39127e-14)
(-5.43111e-15 -9.12779e-13 -1.015e-12)
(1.43747e-11 1.09318e-10 1.95274e-11)
(-1.26017e-09 -1.04274e-08 -7.16346e-09)
(1.06662e-13 4.90149e-14 3.11032e-14)
(1.46645e-13 3.04396e-13 2.49708e-13)
(5.78414e-12 -4.16159e-12 -3.36816e-12)
(0.0024259 -0.0955615 0.00646797)
(-2.00514e-14 -1.82693e-13 1.43835e-13)
(6.3148e-14 -5.01584e-14 -1.08672e-13)
(1.69382e-13 4.31872e-14 2.1641e-14)
(6.64036e-14 -7.06746e-14 -9.39898e-14)
(0.00815554 -0.0208073 0.00570721)
(2.11673e-13 1.05783e-14 -2.04717e-13)
(-2.17221e-14 -1.93756e-14 -2.97147e-13)
(5.36866e-05 0.000503402 0.000462293)
(-6.45907e-14 -1.00982e-13 -5.20844e-14)
(1.41582e-13 -6.14607e-14 2.02858e-13)
(2.92934 21.2161 -1.75242)
(-2.48956e-13 -1.17082e-13 1.36487e-14)
(2.01932e-13 -6.59886e-14 2.2711e-14)
(1.016 0.00859266 0.0325067)
(4.74195e-13 3.53139e-13 5.04742e-13)
(-1.69096e-14 -1.38636e-13 4.9601e-14)
(3.9808e-14 -1.23903e-13 -7.73486e-15)
(-1.04242e-13 2.29405e-13 -9.7858e-14)
(-3.35768e-14 -9.00842e-14 1.19891e-13)
(-5.46684e-14 5.71972e-14 2.30672e-13)
(2.41873e-14 -6.47137e-14 1.90426e-14)
(-6.73238e-14 1.39851e-14 1.85135e-13)
(4.63794e-07 1.14386e-06 -5.78332e-07)
(2.01017e-14 -8.49195e-16 4.89646e-14)
(1.62279e-14 -2.13768e-13 -1.30301e-13)
(-2.31138e-13 -4.45119e-14 -3.49934e-14)
(-4.84131e-14 1.08442e-13 -1.29616e-13)
(-0.000831352 0.00147014 0.00482798)
(2.43676e-14 -9.49646e-14 -3.70936e-14)
(-5.19452e-14 -1.27341e-13 1.46948e-13)
(-2.2041e-14 8.16824e-15 -9.70668e-14)
(1.92908e-13 -1.55038e-13 7.71074e-14)
(-1.8824e-13 2.10704e-14 2.63055e-13)
(1.47394e-14 1.94823e-13 1.78852e-13)
(7.18482e-15 2.07585e-14 -1.00376e-13)
(-1.25002e-13 3.33997e-14 1.9463e-13)
(-3.78979e-14 -1.65131e-13 1.31482e-14)
(3.99394e-13 -1.25502e-13 1.60269e-13)
(4.6268e-14 -1.60345e-13 -2.21806e-14)
(5.09063e-14 1.99781e-13 -2.35219e-14)
(1.1794e-14 3.41418e-14 6.49449e-14)
(-2.25857e-13 7.5084e-14 3.25686e-14)
(7.8166e-14 -1.25201e-13 -1.45215e-14)
(-1.65399e-14 -9.31074e-14 7.72803e-15)
(-1.66127e-16 -4.23024e-14 2.24812e-14)
(0.00115698 0.00320852 0.00519423)
(3.50347e-13 -3.02894e-13 -2.89859e-14)
(-5.22873e-14 3.82033e-14 1.39121e-13)
(3.87491e-14 9.86013e-14 4.4632e-14)
(1.42015e-13 2.47767e-13 -2.16221e-13)
(-1.96505e-13 -9.22148e-14 -6.54948e-14)
(0.00931696 0.0232764 -0.00895246)
(0.137009 0.0989526 -0.0132802)
(4.11842e-14 -1.64782e-13 -3.874e-13)
(-1.65172e-11 -1.50726e-11 -7.3978e-12)
(-5.42525e-06 -2.76993e-05 4.6437e-05)
(-0.00137833 0.0141632 0.000178367)
(1.0594e-13 -3.53852e-15 -1.73538e-14)
(1.64329e-13 2.11263e-13 -3.26039e-13)
(-1.52908e-13 5.82082e-14 5.95648e-14)
(11.4774 3.79202 6.74992)
(1.75856e-13 -1.38446e-13 3.38016e-14)
(5.20588e-15 -6.93114e-14 9.01703e-14)
(-0.00309381 0.0208399 0.00337132)
(0.867519 17.3318 2.04922)
(-3.14556e-06 -1.00259e-05 1.99903e-05)
(6.2177e-14 6.96422e-14 7.60038e-14)
(1.47839e-13 -5.8218e-14 -7.31445e-14)
(1.49171e-13 -9.91016e-15 -3.78956e-14)
(-1.99244e-13 1.75509e-13 3.07691e-14)
(-16.9374 14.2878 -8.68633)
(-4.38954e-14 -1.0304e-13 1.22454e-13)
(-8.22e-14 -4.59023e-14 -1.60046e-13)
(6.59922e-14 1.249e-13 -8.87047e-14)
(-4.88633e-14 -1.64172e-13 -2.21954e-13)
(-1.03068e-13 4.33531e-14 1.13678e-13)
(7.49374e-14 1.55021e-13 8.73651e-14)
(-4.05962e-14 -3.18913e-14 2.75099e-13)
(-1.05315e-14 -1.07046e-13 -4.68689e-14)
(-1.9901e-14 -1.58052e-14 -1.13158e-13)
(1.64421e-13 -1.92892e-13 2.43049e-14)
(1.0296e-13 2.33724e-14 -1.30383e-13)
(1.30826e-13 9.79229e-14 -1.01211e-14)
(1.79874e-13 -1.03487e-13 2.07031e-13)
(8.22596e-14 -2.73209e-13 1.53741e-13)
(-8.01227e-14 5.0356e-15 -7.81629e-14)
(-4.15982e-14 -1.90326e-13 -1.59521e-15)
(-0.0113038 0.00147217 0.015244)
(-3.55936e-13 2.16322e-14 -9.67395e-14)
(-1.29021e-13 -4.87222e-14 -7.15575e-14)
(-8.87943e-14 1.86601e-13 1.33519e-14)
(3.40667 -23.2953 1.89576)
(-1.86587e-13 -1.52143e-13 -2.85713e-15)
(7.8784e-14 -1.94913e-13 -1.07905e-13)
(-9.883e-15 1.15021e-13 -3.77018e-13)
(4.70349e-15 9.2948e-14 2.15598e-13)
(-1.19384e-14 -6.82135e-15 -3.85122e-14)
(4.91279e-14 2.36839e-13 -3.03838e-14)
(-4.05392e-13 -1.37093e-13 -1.54953e-12)
(3.30005e-14 1.33773e-13 -3.37072e-14)
(9.99105e-14 -3.35937e-14 -8.59695e-14)
(-2.72359e-14 -2.29992e-13 -4.72322e-14)
(2.01452e-13 -1.6398e-13 1.38544e-14)
(-5.05407e-14 -2.11178e-13 2.4897e-13)
(1.71231e-14 -2.01441e-13 -3.12639e-14)
(1.48314e-13 7.95585e-15 1.58286e-13)
(9.68318e-14 1.03093e-15 -1.02361e-13)
(1.02517e-13 1.46161e-13 -3.16756e-13)
(-9.49718e-14 1.28106e-13 6.14695e-14)
(4.08269e-15 1.62213e-13 1.39999e-14)
(6.28689e-14 2.90893e-13 4.58415e-14)
(-5.7684e-13 5.99411e-13 -2.78122e-13)
(-0.000449564 -0.000437584 0.00029491)
(-3.87649e-14 -2.49684e-13 -5.33769e-14)
(3.24683e-14 1.62277e-14 1.4123e-13)
(-3.43146e-14 8.99391e-14 1.0811e-13)
(5.30338e-14 1.29432e-13 3.01495e-14)
(2.59166e-13 5.25405e-14 1.42999e-13)
(-1.01855e-13 1.13599e-13 4.00278e-13)
(-8.55808e-14 -2.23698e-13 1.08528e-13)
(-2.78114e-10 -7.96965e-11 -5.70635e-10)
(0.00167686 0.0268667 0.00169937)
(-1.17533e-10 1.41587e-10 -2.3259e-12)
(1.4862e-13 -9.93127e-15 1.48967e-13)
(7.32767e-14 2.03348e-13 3.11566e-13)
(1.35336e-13 -1.39026e-14 -7.54874e-14)
(9.77561e-15 -6.62811e-14 -3.31062e-14)
(3.22147e-15 -2.28054e-13 -1.28649e-13)
(4.63098e-14 1.44209e-13 -1.11199e-13)
(1.14601e-14 -1.92629e-14 -2.29727e-14)
(-6.12039e-14 -8.29356e-15 1.69684e-13)
(-1.13699e-13 1.46157e-13 -1.63104e-13)
(1.70733e-13 3.66578e-14 -4.34613e-14)
(-1.68356 15.0337 2.11523)
(-8.38332e-14 5.75185e-14 1.82744e-13)
(-1.00819e-13 -1.29742e-13 3.51375e-13)
(1.04516e-13 1.90527e-14 -3.05943e-14)
(2.98234e-13 5.36137e-14 5.15224e-14)
(0.000391969 -0.000370576 0.000247923)
(-1.68795e-13 -7.12185e-14 1.19879e-13)
(-2.27489e-13 -5.97149e-14 -8.66497e-14)
(-3.13797 17.0327 -18.8701)
(-9.95397e-14 -8.98704e-14 2.74093e-14)
(-5.29614e-11 -6.76867e-13 -6.44119e-11)
(8.2342e-14 1.29039e-13 1.52707e-13)
(-4.23017e-14 -1.68927e-13 6.17074e-14)
(1.41412e-13 3.94669e-14 -7.92531e-14)
(-3.12373e-14 7.7418e-14 5.90192e-14)
(-0.000216646 3.49234e-05 8.90425e-05)
(3.39721e-13 6.55328e-14 -1.16727e-13)
(-9.1876e-13 1.72419e-12 -8.46472e-14)
(-1.13335e-13 1.76739e-13 1.6648e-13)
(7.12158e-14 2.39766e-14 -1.714e-13)
(-2.59622e-13 2.95465e-13 1.62048e-13)
(2.31389e-13 1.52993e-13 -4.19116e-14)
(-1.80022e-13 5.88737e-14 1.58609e-13)
(1.13525e-13 2.49507e-14 2.52752e-13)
(4.20837e-14 2.41947e-13 3.78516e-14)
(-1.00779e-13 -1.3835e-13 1.10683e-13)
(6.5191e-14 -2.80823e-14 -9.73907e-15)
(-5.17108e-14 -1.85632e-13 -7.00709e-14)
(4.46024e-15 -1.41292e-13 -7.72821e-15)
(1.52025e-13 -9.5323e-14 5.32012e-14)
(1.71932e-13 -6.08679e-14 -1.71857e-13)
(-1.00564e-10 -7.2414e-11 -2.14317e-10)
(-6.91042e-14 -2.02968e-13 -1.21129e-13)
(-4.36701e-12 -4.84765e-12 -3.09772e-12)
(3.31373e-13 -1.5373e-13 -2.6953e-14)
(-1.63688e-15 -2.20029e-14 6.31761e-15)
(-1.87291e-07 1.03411e-07 1.88966e-07)
(0.00130974 0.0169101 0.0377141)
(2.27993e-15 3.92203e-14 -2.01264e-13)
(6.92447e-13 1.14909e-13 -1.0315e-13)
(-1.02678e-05 2.76546e-05 -3.89757e-05)
(-0.00917075 0.0178042 0.0135105)
(9.64148e-10 3.26644e-08 -3.1089e-08)
(3.52688e-14 1.09304e-13 2.62299e-14)
(-1.32562e-13 1.52899e-13 -6.05955e-14)
(8.51793e-14 -2.39073e-13 -6.07759e-14)
(-1.11775e-13 1.71825e-13 -1.50274e-13)
(1.86147e-12 -1.84652e-12 3.33032e-12)
(-5.31781e-14 -1.52395e-13 2.2937e-13)
(1.99353e-13 -1.84205e-13 6.51539e-14)
(-7.75779e-12 -3.06503e-11 -2.86873e-11)
(5.08201e-14 -7.00092e-14 -1.04882e-13)
(5.86055e-13 4.60928e-13 -3.47507e-13)
(-1.99054e-13 4.27802e-14 -7.21411e-13)
(-1.17926e-12 3.1783e-12 -3.7728e-12)
(1.68583e-10 -6.98094e-10 5.55912e-11)
(13.8489 -1.61562 1.5623)
(-1.11154e-09 3.85738e-10 -2.28221e-09)
(7.5017e-14 1.9875e-13 1.96466e-13)
(1.51362e-13 -1.47616e-13 -2.381e-13)
(1.17466e-13 1.13042e-13 -5.81211e-15)
(20.1211 7.96565 -5.21268)
(1.27945e-13 -1.20935e-13 2.29697e-13)
(-1.13265e-13 -1.05068e-13 -8.15465e-14)
(-1.16975e-13 -1.53655e-13 1.2807e-13)
(-2.84505e-07 -3.70281e-07 -1.47876e-07)
(-3.99517e-14 -1.81914e-13 -2.11529e-13)
(-1.41304e-13 -4.51333e-14 4.48097e-13)
(1.19963e-14 9.84345e-14 -2.25611e-13)
(1.1154e-13 -1.87425e-13 -8.1929e-14)
(1.60585e-13 4.40769e-15 1.06096e-13)
(6.81573e-14 1.4589e-13 4.94456e-14)
(3.09634e-14 -6.06394e-14 5.11144e-13)
(3.65488e-12 -2.61043e-12 -1.92163e-12)
(17.1056 -0.165661 -2.2572)
(-0.0469498 1.1437 0.158353)
(2.11949e-13 -1.65685e-13 1.14903e-13)
(-1.43421e-13 2.24247e-13 -1.02858e-13)
(-14.6035 0.752686 0.415667)
(-1.52066e-13 -2.11789e-13 4.90437e-14)
(1.28184e-13 1.24525e-13 -1.56905e-13)
(2.05201e-13 -5.07196e-14 2.22723e-13)
(-3.14128e-14 2.56583e-14 3.84928e-14)
(7.71095e-14 8.21165e-14 -1.14586e-13)
(4.29419e-14 1.13526e-13 -8.51146e-14)
(-6.98112e-14 -8.22829e-14 1.6951e-13)
(-0.00076538 -0.000117184 -0.00052513)
(1.08406e-13 2.38342e-13 -1.29392e-15)
(7.03029e-14 1.97208e-14 2.67535e-14)
(-6.53836e-10 3.19786e-10 -1.20389e-10)
(0.0152582 0.024008 -0.0120275)
(-1.07607e-13 5.3631e-14 -2.49655e-13)
(-7.67084e-14 1.1915e-13 -2.21206e-13)
(-4.61594e-13 -2.0312e-13 9.86621e-14)
(-1.46673e-14 -4.90807e-14 1.31083e-13)
(-4.43545e-09 3.32974e-09 4.63483e-09)
(-5.14724e-13 -2.18448e-13 6.30504e-14)
(4.6236e-14 7.52764e-14 2.49585e-13)
(-2.46849e-13 1.40234e-13 -1.47708e-14)
(-4.00653e-14 -3.32531e-14 -2.47674e-13)
(-2.99989e-14 -6.464e-14 -2.46411e-14)
(2.24782e-13 1.09598e-13 -1.05686e-13)
(-2.48243e-07 6.34359e-08 1.10293e-07)
(-1.12283e-13 8.03693e-14 6.95513e-14)
(-4.16247e-14 6.67631e-14 5.30289e-14)
(-1.27142e-13 -7.25463e-14 9.67876e-14)
(1.19056e-05 4.93738e-05 -1.45507e-05)
(1.45777e-13 -1.91362e-13 3.48014e-14)
(-8.82803e-14 2.06934e-13 -1.45778e-14)
(8.54905e-14 -1.29402e-13 8.27407e-14)
(-4.19649e-14 2.2237e-13 1.75206e-13)
(-2.96875e-12 1.56478e-12 -1.8609e-12)
(-1.26857e-13 -5.42461e-14 2.34363e-14)
(4.47756e-14 3.14786e-15 -1.75877e-13)
(5.95167e-14 1.34462e-13 -1.3088e-13)
(-1.74586e-14 1.39479e-13 1.0296e-13)
(-4.28255e-14 -9.75291e-15 3.79188e-14)
(8.26483e-14 9.87667e-15 1.51466e-13)
(-1.61889e-13 1.04542e-13 -2.4599e-13)
(-3.04448e-13 2.61634e-14 5.76556e-13)
(-5.57421 0.487412 -0.825229)
(-5.05351e-14 2.9759e-13 -1.14445e-13)
(5.83131e-14 -3.22981e-14 -3.61569e-13)
(-1.2325e-13 2.83057e-14 -1.78333e-13)
(-1.24018e-13 1.04354e-13 2.30152e-14)
(3.99005e-05 3.43934e-05 -3.16345e-05)
(-2.30852e-14 -1.26637e-13 1.24055e-13)
(-1.80175e-13 -7.69853e-14 -9.2424e-14)
(-4.25429e-06 0.000101581 -4.5273e-07)
(1.9571e-13 -6.18747e-14 -2.12025e-13)
(-2.14034e-06 -2.13099e-06 -9.61928e-07)
(-3.79135e-13 2.24441e-13 8.6176e-15)
(-1.26208e-13 1.57399e-13 -9.2952e-14)
(-1.46481e-13 1.75851e-14 -2.62282e-14)
(-1.79457e-14 -1.1549e-13 -1.10724e-13)
(5.34882e-05 0.00048184 7.9167e-05)
(2.31226e-13 -1.18355e-13 9.27744e-14)
(6.44275e-15 2.15261e-14 -2.1013e-13)
(-0.000220495 0.00765804 0.00845681)
(-3.58367e-07 -1.06464e-06 1.00826e-07)
(1.27274e-13 -1.2867e-13 -9.99134e-14)
(-5.22008e-14 -1.75691e-13 2.75892e-14)
(1.17783e-13 5.72354e-14 1.72561e-13)
(-1.4257e-13 -6.02128e-14 -7.13477e-14)
(-2.66576e-14 2.79084e-14 1.37799e-13)
(-0.00346096 0.0180791 0.00825479)
(-8.22116e-14 -8.83719e-14 -2.52227e-14)
(-2.16374e-13 3.35021e-14 1.05984e-13)
(8.67705e-14 -2.56506e-13 9.13774e-15)
(-9.87492e-14 -2.14067e-13 2.5833e-14)
(-3.95803e-15 1.30937e-13 -1.01675e-13)
(-2.34529e-13 1.09575e-14 -1.05954e-14)
(3.26133e-13 3.00222e-14 4.08507e-14)
(-1.39382e-13 4.59855e-14 8.92622e-14)
(-2.09442e-12 9.03606e-13 -3.57294e-12)
(-0.00669868 0.013043 0.00300267)
(34.1722 6.83057 19.9623)
(0.383648 1.31834 0.643964)
(0.00816018 0.00582211 0.00711123)
(-0.00187641 0.00380541 0.00257479)
(-0.000548633 0.00275919 0.00382971)
(0.0168341 0.0493199 0.0153684)
(-2.39541e-13 -2.72508e-13 1.56247e-13)
(-1.8753e-12 -1.34199e-13 -7.6042e-13)
(-1.50826e-13 -8.31541e-16 4.19977e-14)
(-1.87721e-13 9.31066e-15 -1.07982e-13)
(3.32926e-14 -1.45372e-13 -8.52069e-14)
(5.14964 0.614946 -1.477)
(4.66609e-14 -6.44455e-14 9.12613e-15)
(-0.000507777 0.0010005 0.000241559)
(-1.26345e-08 -3.75445e-09 -2.05583e-08)
(2.21622e-13 -6.8781e-14 1.44297e-13)
(2.04849e-14 5.34757e-14 8.15418e-15)
(-15.9831 -1.61847 8.6278)
(7.18415e-14 1.92759e-13 3.69303e-14)
(5.89205 1.27975 10.6985)
(-1.86632 0.688583 0.24645)
(-1.15889e-09 7.60071e-10 4.10173e-09)
(-0.0168471 0.0376899 0.0106182)
(2.55414e-06 1.65637e-05 7.93552e-06)
(-0.000570582 0.00231822 0.00220409)
(3.07973e-14 4.09364e-14 -6.31345e-14)
(1.52464e-13 -1.79802e-13 -2.20418e-13)
(-5.11291e-10 9.37723e-10 -4.82046e-10)
(-1.22079e-13 -6.31156e-14 3.27291e-14)
(0.0193496 0.0410988 0.0245088)
(-1.46479e-13 -2.05185e-13 1.85997e-13)
(3.17254e-15 -2.92156e-13 2.78867e-14)
(-1.48405e-13 -1.51497e-14 1.38655e-14)
(-2.99194 16.6919 -1.12408)
(5.43462e-14 -2.71552e-13 -2.27396e-13)
(8.90404e-14 1.36232e-13 -1.22396e-13)
(-2.44825e-12 -1.02338e-12 -6.35653e-13)
(2.28076e-13 2.69393e-13 2.41201e-13)
(-1.19895e-13 -1.16243e-13 2.20484e-13)
(-0.872248 18.0404 2.16215)
(-0.254156 17.7177 0.839168)
(4.05848e-14 -1.20368e-13 4.07382e-14)
(-1.941e-13 -6.28965e-14 9.15353e-14)
(-2.22868e-08 2.61541e-08 3.68233e-08)
(-2.62049e-14 1.08482e-13 9.19139e-14)
(0.946937 13.6309 0.623252)
(-8.29342e-14 -1.92852e-13 3.01871e-13)
(-3.13581e-13 -2.22301e-12 -1.04897e-12)
(-1.00449e-13 -6.07114e-15 2.13254e-15)
(-6.78287e-14 -7.54613e-15 7.78746e-14)
(0.131892 0.150874 -0.0327245)
(9.10842e-15 1.30317e-13 1.97431e-13)
(-1.40303e-13 -1.57199e-14 -5.18475e-14)
(0.21351 0.727333 0.0400687)
(1.71115e-13 1.63388e-13 3.03604e-13)
(-2.76383e-14 1.72722e-13 3.35204e-14)
(0.000928799 0.0059371 -0.000330637)
(-1.45864e-13 1.57279e-13 -8.98666e-14)
(2.85113e-13 2.29189e-13 1.86177e-13)
(0.00388847 0.300294 -0.0428255)
(1.4014e-13 8.99012e-15 3.42193e-14)
(-2.32813e-13 1.3847e-13 -2.47271e-13)
(-1.58414e-14 1.2966e-13 -5.39753e-14)
(0.000103175 0.00029769 3.94043e-05)
(6.58475e-14 -2.14545e-13 -8.8927e-14)
(2.07977e-13 1.1238e-13 5.35104e-14)
(-5.93432e-14 -2.01951e-13 1.1599e-13)
(2.25597e-13 1.45566e-13 -2.29996e-13)
(2.04985e-13 -1.32502e-13 1.8006e-13)
(-2.19342e-10 1.95662e-10 -1.40889e-10)
(-3.1689e-14 -5.94304e-14 6.17896e-14)
(2.3121e-14 1.38526e-14 3.40698e-14)
(6.42004e-14 -9.90917e-14 9.20686e-14)
(1.39227e-13 1.19799e-13 5.19239e-14)
(-0.0330644 0.22372 0.073789)
(9.90846e-14 -2.07062e-14 -8.92617e-14)
(-1.3212e-10 -6.17176e-11 -1.54807e-10)
(0.015094 0.26309 0.0437398)
(-4.06718e-12 5.82294e-12 -8.10909e-12)
(-4.71319e-14 -9.80444e-14 -2.6553e-14)
(2.36564e-13 -9.21331e-14 -2.68625e-13)
(-0.013675 0.6486 0.00463114)
(0.0577542 0.38542 -0.00646473)
(-2.69285 22.7119 0.0461541)
(6.25869e-14 -6.20086e-14 6.71483e-14)
(-14.2554 -0.770346 1.07393)
(3.35388e-14 2.21312e-13 1.49117e-13)
(-18.6408 -3.05761 -0.184332)
(2.80745e-05 7.97701e-05 3.08731e-05)
(-26.6904 1.45308 2.1417)
(2.42772e-14 3.52913e-14 8.91153e-14)
(-1.41679e-13 1.08054e-13 -2.12013e-13)
(3.87534e-13 -5.28624e-14 4.65426e-14)
(3.42056e-14 -1.30718e-14 1.28253e-13)
(-9.5139e-14 -3.98683e-14 -1.05156e-13)
(-19.8251 -4.79049 -2.78876)
(-2.18523e-13 1.51614e-13 5.75655e-14)
(3.27344e-14 -1.27986e-14 1.86491e-13)
(-1.22721e-13 1.20313e-13 -4.10069e-14)
(-2.52832e-14 -2.04685e-13 8.25942e-14)
(-1.82974e-13 6.59142e-14 -1.56917e-13)
(2.92149e-13 -8.07881e-14 -5.42427e-14)
(4.15289e-14 1.11307e-13 5.06497e-14)
(-3.76009e-09 7.52795e-10 -1.4264e-10)
(-21.699 -1.94638 4.28767)
(-1.03693e-13 -2.37704e-13 5.32463e-14)
(-8.56021e-11 3.03031e-10 -1.58327e-10)
(8.29894e-14 5.88671e-14 8.13642e-14)
(2.51613 -15.3323 3.6849)
(-21.7878 1.14604 -0.728212)
(0.00146684 0.000408412 0.00349208)
(-7.21273e-14 5.87424e-14 -9.39912e-14)
(-15.8262 3.58918 3.18167)
(-4.64584e-14 2.46619e-14 -1.21778e-13)
(-3.22731e-14 -2.83027e-14 -1.59795e-13)
(1.05301e-13 5.95281e-14 -1.42414e-13)
(-0.647763 -0.187223 0.0924245)
(7.51449e-14 -2.14199e-14 2.734e-13)
(-5.89535e-14 9.25919e-15 -3.10698e-15)
(3.81977e-14 -3.36363e-14 6.80236e-14)
(7.58163e-14 2.1166e-13 1.34133e-13)
(-3.60496 0.519398 0.394737)
(-3.58286e-14 -1.18398e-13 2.36298e-14)
(-1.27808e-13 2.03545e-14 -1.54435e-14)
(2.92396e-14 3.48797e-15 -5.87575e-14)
(-2.21259e-13 1.41832e-14 3.20646e-13)
(0.000255085 7.56273e-05 -5.08359e-05)
(-8.73876e-14 1.44037e-13 -6.87933e-14)
(2.36544e-15 -7.73772e-14 -6.02075e-14)
(-2.56613 -0.0298407 0.0772454)
(-2.77115 0.787249 -0.0976484)
(-3.79984e-10 -1.076e-09 1.3608e-09)
(-7.10529e-14 -2.43469e-14 9.49824e-15)
(2.79194e-14 2.26606e-13 4.10377e-14)
(1.05306e-13 6.29797e-14 -5.14401e-14)
(1.39502e-13 3.86114e-14 -1.26319e-13)
(1.66282e-14 -5.70094e-14 4.77836e-14)
(-2.20691e-14 -1.64935e-13 1.83776e-13)
(-3.65893e-14 -2.56425e-13 -2.2576e-14)
(1.01136e-13 4.80478e-14 4.07915e-14)
(-2.71467e-13 -4.43468e-14 -8.1222e-14)
(0.15522 -0.0518405 0.0114091)
(0.408213 0.0950172 -0.0651742)
(-1.54633e-13 2.14683e-13 8.36916e-14)
(6.76631e-15 6.13915e-14 -2.33978e-13)
(0.132484 0.021772 0.00868614)
(-1.51164e-09 1.10591e-08 -1.05944e-08)
(0.000507606 0.000599753 0.000273014)
(-7.09471e-14 1.77379e-13 -1.28186e-13)
(-1.29065e-13 -2.58783e-13 -2.55857e-14)
(7.38349e-14 2.84465e-14 8.62777e-14)
(1.19456e-13 8.72007e-14 1.2798e-13)
(3.86184e-06 1.29932e-06 1.03538e-07)
(-1.75389e-07 1.50344e-07 -3.79586e-07)
(0.22419 0.0283979 -0.022111)
(-6.85298e-14 -6.90144e-14 -2.84614e-15)
(2.34999 0.14404 0.0836568)
(-8.91009e-14 -2.01248e-13 -1.1336e-13)
(5.1242e-14 -8.44865e-15 -1.16247e-13)
(0.740482 0.127335 0.0103674)
(0.496287 0.0142781 -0.0503484)
(-0.00254012 0.000818777 0.00221955)
(0.000550884 0.000552981 0.00100996)
(6.28211e-14 -6.4934e-14 1.03351e-13)
(-1.437e-13 -1.3759e-14 1.5645e-13)
(-3.89695e-15 1.77954e-13 9.33136e-14)
(-2.37351e-13 7.89193e-14 -8.87163e-14)
(0.518383 -0.0500266 0.0475379)
(0.00853492 0.0632028 0.0144517)
(0.311912 0.0958436 0.133161)
(0.310026 0.0367457 -0.000172303)
(-1.1996e-06 2.04001e-07 1.41535e-06)
(9.14825e-05 5.70981e-05 3.625e-05)
(0.207346 0.0596404 0.0201935)
(5.69571e-14 -4.55568e-14 -1.26095e-13)
(-9.55329 -6.10944 2.23987)
(6.57843e-14 2.57986e-13 -1.97642e-14)
(-1.21402e-13 2.1073e-14 9.07399e-14)
(-5.0272e-10 -1.4423e-09 -1.04496e-09)
(-0.00648779 0.0397779 -0.00601122)
(-2.08459e-13 1.11922e-13 5.85265e-13)
(-2.49297e-14 1.2669e-13 4.78556e-15)
(-1.34827e-13 1.99126e-14 -4.58858e-14)
(-5.75327e-14 1.40095e-13 -2.43765e-13)
(8.25133e-14 -2.27214e-14 1.33253e-13)
(-1.17735e-14 -1.34035e-13 -4.41475e-14)
(-2.73949e-11 4.38489e-11 -1.18577e-11)
(1.78906e-13 8.6266e-15 8.70512e-14)
(1.98115e-14 -2.58011e-15 6.45029e-14)
(-9.33677e-14 8.00777e-15 1.9358e-13)
(1.74891e-13 1.13278e-13 1.163e-13)
(1.50372e-13 6.50651e-15 6.09652e-14)
(-2.3304e-13 -3.80138e-14 2.32125e-15)
(-7.47169e-17 -2.11047e-14 -8.00301e-14)
(-1.51903e-13 -8.69235e-14 1.71585e-13)
(-2.61709e-13 -3.63449e-14 1.73964e-14)
(2.92543e-13 5.47341e-13 -9.28471e-13)
(-2.71697e-14 3.30169e-13 8.70509e-14)
(-1.46721e-13 -3.03227e-13 -8.18819e-14)
(1.42139e-14 -8.66478e-14 -3.94568e-14)
(2.14186e-13 1.22004e-13 -4.32756e-14)
(9.59643e-14 9.15203e-14 2.54257e-13)
(-1.42418e-13 1.4753e-13 -1.36355e-13)
(6.00965e-14 -9.35653e-14 -1.39462e-13)
(8.3853e-07 -2.18137e-06 -1.43163e-06)
(-6.58626e-14 8.37063e-14 2.98765e-14)
(-2.9161e-14 1.56356e-14 -5.73723e-14)
(7.88785e-14 -1.72456e-13 8.89487e-14)
(-1.6413e-13 1.20939e-13 3.21093e-14)
(-8.7456e-09 -4.27218e-09 -2.5181e-08)
(-1.76087e-13 1.17778e-13 -2.49373e-14)
(-1.8282e-13 -6.96252e-14 2.43052e-13)
(-2.03054e-14 -1.74933e-13 2.40007e-13)
(-4.85158e-14 -1.35631e-13 3.02098e-14)
(4.98585e-16 -4.15606e-15 -2.94935e-13)
(2.57405e-15 5.01386e-14 2.1917e-13)
(5.07328e-11 4.43805e-11 1.02964e-11)
(-2.28303e-13 1.99263e-13 1.93364e-13)
(1.67034e-13 -1.23009e-14 7.77893e-14)
(-1.72162e-14 -1.11368e-13 2.25628e-13)
(4.17344e-16 1.76709e-13 4.22453e-14)
(-1.73944 5.83715 1.2897)
(-2.35011e-13 3.37019e-14 2.25266e-13)
(-1.20759e-13 -8.13151e-14 1.22067e-13)
(1.17234e-13 3.37627e-13 -1.91935e-13)
(6.70313e-14 -1.8206e-13 -3.15386e-14)
(-1.21436e-13 -1.76431e-14 -2.47122e-14)
(0.00044966 -8.08559e-05 0.0004044)
(5.65903e-14 -5.78946e-14 -1.23572e-13)
(-1.43441e-13 -1.25045e-13 5.57354e-14)
(1.9583e-13 5.15357e-13 -1.2203e-13)
(-1.95495e-13 -4.83496e-14 -4.83134e-14)
(1.19386e-13 2.25282e-13 -8.79105e-14)
(-1.5349e-13 1.28815e-14 1.37824e-13)
(-1.36336e-13 -4.83807e-14 1.10886e-13)
(-7.28735e-14 8.04098e-14 -3.00131e-13)
(1.87918e-14 -8.00621e-14 6.92289e-14)
(-1.05748e-13 9.28709e-14 8.73295e-14)
(-6.98201e-14 -1.618e-13 -3.26972e-14)
(4.40961e-14 3.46521e-14 3.54335e-13)
(-0.0128485 0.0912803 0.0324059)
(-0.0109075 0.0694124 -0.00243803)
(6.87478e-14 -6.88169e-14 8.70493e-14)
(-7.70007e-15 -4.89983e-14 3.54046e-13)
(1.9072e-13 1.48091e-15 -1.67816e-13)
(-1.23717e-13 -1.08517e-13 2.17328e-13)
(1.709e-13 1.05015e-14 -1.54949e-13)
(1.27461e-13 5.81655e-14 3.43671e-14)
(-1.48505e-13 -3.29795e-13 3.15429e-13)
(2.23445e-13 -9.97268e-14 -6.92678e-14)