/*--------------------------------*- C++ -*----------------------------------*\
| =========                 |                                                 |
| \\      /  F ield         | OpenFOAM: The Open Source CFD Toolbox           |
|  \\    /   O peration     | Version:  2312                                  |
|   \\  /    A nd           | Website:  www.openfoam.com                      |
|    \\/     M anipulation  |                                                 |
\*---------------------------------------------------------------------------*/
FoamFile
{
    version     2.0;
    format      ascii;
    arch        "LSB;label=32;scalar=64";
    class       volScalarField;
    location    "0.3";
    object      alphat;
}
// * * * * * * * * * * * * * * * * * * * * * * * * * * * * * * * * * * * * * //

dimensions      [1 -1 -1 0 0 0 0];

internalField   nonuniform List<scalar> 
32842
(
0.000801946
0.000810192
0.000803477
0.00080347
0.00124277
0.00080347
10.2567
4.99957
0.00080347
0.00080347
1.16529
1.09049
0.000803033
0.00080347
0.000802255
0.000803003
0.000803434
0.00080347
0.000802329
0.00122859
0.00129644
0.00126947
0.00120856
0.000803477
0.0011982
0.00080347
0.00080347
0.00106837
0.702003
0.000801519
1.49262
0.647119
16.6412
0.000802278
29.2283
8.27166
0.00142235
0.000802226
0.000802623
0.000802246
0.000803473
0.00129194
0.00080347
0.00080347
0.44948
0.000802028
2.75168
0.000802275
0.00127354
0.073348
4.83008
0.00080347
0.805309
0.128586
0.000803474
0.00759946
0.00080347
0.125423
0.000803471
0.00080347
6.66122
0.774072
0.863333
0.00129873
0.00080237
7.29535
0.000803472
0.956195
0.599008
0.000809401
0.00105564
8.1097
0.681379
0.00080347
0.00080347
0.000797363
0.140624
0.00080347
0.680106
1.44318
0.00123704
0.00080347
0.00080347
0.756719
1.06365
0.00080347
0.00080347
0.00613872
0.160144
0.00080347
0.00124239
0.00126756
10.5829
0.000803205
0.00080347
0.000801836
0.661024
0.000802543
0.9825
0.00080347
0.00080347
0.00162665
0.000815309
0.433867
0.675974
0.618863
1.33944
0.000815206
0.718691
0.000806733
0.00080347
0.000803469
1.55226
0.00080347
0.00081353
0.00128122
0.741951
0.708505
0.000810076
0.000801447
0.000803469
0.00080347
0.00598488
0.000803475
0.000746461
0.673214
0.53962
0.000802202
9.91929
0.000803474
0.00080347
0.00083064
0.00192296
0.669441
0.00187939
0.000803567
0.000517689
0.133722
0.00080183
0.000803097
0.725481
0.000802383
0.721491
0.680659
0.000802703
0.000802529
23.5824
0.00080234
0.00080347
0.00080345
0.000824567
0.231077
0.00114599
2.38623
0.000803707
0.00080347
0.00080347
0.000802364
0.000801744
0.00080347
0.000802084
0.00080347
0.00120146
0.00080347
0.000805758
0.000802064
0.00080347
0.000803004
0.000802479
3.4936
2.76499
0.00160214
5.19087
0.00080347
0.0013096
1.43382
0.000802876
0.000812489
0.00080347
0.00080347
0.00112411
0.000803429
0.000803426
0.00080347
0.746568
0.000803411
0.687022
0.000803465
0.000802558
0.00080329
0.000803371
0.123222
0.587207
0.00080347
0.610033
0.000803405
0.000801049
0.000803111
0.659101
0.000803469
0.000801958
0.000804579
0.134134
2.16059
0.27597
0.00371075
0.000803134
0.00129645
0.614572
0.000802112
0.000802405
0.000828821
5.75922
5.63081
0.000803452
0.00080347
0.000802243
0.000803163
0.000801405
0.000803867
0.103902
0.00080347
0.00080347
0.000801112
0.00157319
0.516787
0.000803474
0.636487
0.000802765
4.77818
0.00080347
0.00080347
0.000800577
0.00080347
5.29481
0.001228
0.00124365
0.081951
0.000803338
0.773468
0.0379536
0.000803403
0.000801535
2.86266
0.000802546
0.000803458
0.817425
0.000803471
0.00080347
0.000803464
0.00080347
0.00080347
0.000803565
0.660706
0.000803074
0.00080347
0.000803336
5.07078
0.000803451
0.000802249
0.00080347
0.00080347
0.00080347
0.000803473
0.504028
0.00080347
0.00080347
0.00080314
0.000801657
0.000803475
0.00080347
0.664969
0.00080347
0.51
0.00080347
2.10677
0.000801776
0.00159158
0.00080347
0.000801896
0.00080347
16.98
10.4987
0.00080347
0.000801848
0.00467856
9.14584
0.00080347
0.00129653
0.00080347
18.79
0.000803474
0.595906
8.80534
0.204954
0.000778494
0.591214
0.00080347
0.000801623
0.00119392
2.49388
0.000803476
0.000803463
0.000803476
0.00080347
0.00080347
0.00080347
0.00080347
0.00080118
0.781022
0.000803466
0.00080347
0.768774
0.000803469
0.00080347
0.00080346
0.000802291
3.19793
0.000803469
0.000801406
0.000801725
0.0792768
0.000803467
0.000949387
0.000803475
0.000803465
0.000801986
0.000803474
0.000802935
0.00080347
0.000801086
0.695933
0.00080347
0.00080347
0.000803075
0.00080347
1.29735
0.601442
0.00080347
0.000803421
0.000802543
0.000801144
0.000607173
0.00080347
0.7779
0.00080347
0.00080347
0.628112
0.89542
0.714917
0.000809332
11.1137
0.00080199
0.658722
0.00080347
0.000802356
0.00125319
0.000802101
0.000803469
0.000800203
0.00080347
0.00080347
0.000803079
1.66592
0.00080347
0.000803108
0.00080347
0.00080347
0.613403
0.00117669
0.00080347
15.207
0.000803086
0.00173217
0.00080347
0.720729
0.00149077
0.00080347
0.000535353
0.00120833
0.000801484
0.79048
0.674416
0.000801822
0.000803346
0.000803476
0.00080347
0.00080347
0.00080347
0.000803003
0.000803446
0.000802226
0.000803457
0.00080347
0.00080302
0.00080347
0.000802655
0.00080129
0.000801702
0.000803728
0.198918
0.00080347
0.000801546
0.000808483
5.80931
0.000804564
0.000801413
0.00169592
0.00080347
0.00134799
0.530043
0.000803229
0.00080347
0.000802732
0.000803399
0.000802021
0.000802076
0.000802091
0.000803097
15.7461
0.000802606
0.680407
0.00080347
0.00130966
5.51216
0.00080347
0.000802326
0.00080347
0.000754079
0.000803473
0.000797586
0.00080347
0.00080347
0.69274
0.00123492
1.31784
0.000802671
19.3709
0.861306
0.734056
0.0012919
0.343537
0.00135787
0.748021
0.000803451
0.000802003
0.000996101
0.000803474
0.00116503
1.60694
0.000803477
0.000803569
0.000804808
13.7704
0.00113867
0.00080235
0.000802052
0.00125933
0.000804942
0.000803483
0.000802973
0.00132747
0.00080347
0.000803471
0.00080347
0.000803125
0.000802675
0.752992
0.000802855
0.000811375
0.00080347
0.00133511
0.00124957
0.00080347
0.00080252
0.757144
0.703475
0.00080347
0.000803474
0.00080347
0.00080347
0.00123837
0.0008021
0.0479487
0.7553
0.000803469
0.000803475
0.962732
0.000815062
0.00080347
0.00147005
0.000813756
0.00100764
0.000821327
0.714083
0.00130433
0.573537
0.758323
0.000703421
0.000801697
0.00128819
6.55007
0.000805432
0.710136
0.00142069
0.978553
0.00113975
0.00080347
6.00971
0.00137901
0.000803102
0.684422
0.000801847
0.665391
0.000802825
0.000803474
0.00154271
0.00173952
9.12823
3.89708
0.403777
2.92374
6.7388
5.81301
12.1939
0.732075
0.000802532
0.000803445
0.000802296
0.756312
0.229785
0.882374
0.949316
0.000803369
0.000803469
0.00114899
0.230811
0.000803478
4.48564
0.131576
0.000800208
1.64708
0.000564226
6.64141
0.000803355
0.00080347
0.000803341
0.720496
3.21203
0.00080347
0.00134276
0.000803018
0.21941
0.596176
0.000802443
0.000802141
0.00080346
0.00080347
0.0424559
1.6482
0.00080347
0.00080347
0.000803562
0.660555
0.108903
0.947338
0.000801748
0.000803469
0.00080347
1.80597
0.767467
0.575701
1.05157
0.587484
0.00080347
8.00774
0.588961
0.000802188
3.44396
0.00080347
0.00124146
0.00080347
0.000800973
0.00125002
0.00120916
0.00080347
0.00080267
0.000802819
0.000801767
0.7654
0.00130673
0.000803473
0.000801604
2.28439
0.00080347
0.00265115
1.66399
0.908834
0.000802759
0.000803469
1.16061
1.40776
8.52734
0.000802524
12.8803
1.08909
0.13752
0.000817395
0.283611
0.000803473
0.00080347
0.000803476
0.00080347
0.00080347
0.206798
0.0012621
0.000802941
0.00080347
0.00080255
0.00080347
0.000800585
0.000803445
0.000803205
0.134805
0.936569
0.000801973
0.00080347
0.00792443
0.15953
0.168955
0.000802414
0.168581
0.00080347
0.00080347
0.00080512
1.01416
0.683932
0.00080347
0.00125274
0.00080347
0.224791
0.00080347
0.00080347
0.000803473
0.000803478
0.273221
0.00080347
0.00080347
0.245825
0.113407
0.000792798
0.00080347
0.00080347
0.601858
1.06874
0.00080347
0.690574
0.00122498
0.00080347
0.00080347
3.41031
6.12974
0.00080347
0.966845
3.82882
0.000803392
0.291138
0.000802603
0.00080347
0.00135122
0.00153378
0.000865518
0.000804032
2.44395
0.00080347
0.646711
0.00080347
0.00080347
1.60008
4.19447
0.751453
0.0722334
0.00080347
0.00080347
0.00117477
0.00121506
2.10548
0.515926
4.56505
7.36337
0.000803481
0.000811476
8.36533
0.00080347
0.383291
0.00080285
0.000803279
0.845931
0.493649
0.000802983
0.000803843
0.00080347
0.000803404
0.000803224
0.00080347
0.000802228
0.00080347
0.00080347
0.784851
0.00080347
0.000802131
0.00080347
1.2339
0.000803469
0.000802628
0.000801812
0.584265
0.00080347
0.000801936
0.000795693
0.000803235
0.000803713
0.000803473
0.000819739
0.000802456
0.000802373
0.000801577
0.000801886
0.000213335
0.000802809
0.00137844
0.000979175
0.0013307
0.00080347
0.00145414
0.00185667
0.569321
0.000802083
0.000801552
0.00135696
0.110249
0.00080347
0.521258
0.00121803
0.00080347
0.00080347
0.000866387
0.000803002
0.000803391
0.798727
0.00080347
0.000803468
0.000802251
0.00130677
0.660667
0.000801578
0.00145631
0.00080347
0.00117297
1.91978
5.75529
0.00117964
0.000802658
0.894612
0.000803463
0.00080347
0.000803254
0.000801105
0.000803869
0.000803063
0.178868
0.00080347
0.000810831
0.806836
0.00153046
0.000802322
0.000808386
0.00080347
0.886721
0.00179801
0.728748
0.000802095
0.587508
0.52962
0.00128458
0.000803474
0.00114741
0.000803261
0.00133181
0.00080249
0.000803431
0.00128416
3.39793
0.65039
0.000803686
15.2551
0.000803042
0.55001
0.000803321
0.00080347
0.00080345
0.00080347
0.000802959
0.000805008
0.00080384
0.000803466
0.00080347
0.000803272
0.000803399
0.000801863
0.662629
0.000806289
0.12418
0.000802145
0.000802493
0.00125536
8.95091
0.000803516
0.000802079
0.00128507
0.000803469
0.000810632
0.000803477
0.00160276
0.89145
0.00080347
0.00080347
0.000802495
0.000803106
0.00080347
0.000805891
0.000803447
0.00080347
20.2372
0.000802894
73.6149
0.000802246
0.000802507
0.000804395
0.000804796
0.00123953
0.0008024
0.00080347
0.00080347
0.000803441
0.21459
0.00080347
0.000803366
0.718096
0.00080279
0.669068
0.000803467
23.1826
0.00080171
0.000802586
0.911414
8.68306
0.000800636
0.000802368
10.4158
0.0015206
0.000803097
0.000801903
0.00080347
0.000802043
0.000802113
0.657889
0.702665
0.678142
0.00080347
0.733184
0.000803414
0.000801063
0.000800907
0.00141788
0.000982634
0.000803457
0.000801782
0.00080347
0.000802182
0.000807386
0.00080347
0.00080265
0.000801477
0.000805166
0.0132067
0.00145708
0.00080347
0.136818
0.249338
0.000802424
0.000459471
0.0855391
0.00080347
0.000803467
0.00080229
0.511327
0.00080347
0.00080347
0.638536
0.00128123
0.000803463
0.00080347
0.00080347
0.000801666
0.000989447
0.164625
0.00080347
0.000802821
0.56773
0.000803019
0.000802354
0.594425
0.000801404
0.00080347
0.000803475
0.000803291
0.653992
0.000802891
0.000801533
0.00080347
0.000803019
0.00147472
0.00080347
0.567042
0.00124532
13.5502
0.00080347
0.00080347
0.000802936
0.000802582
0.000801136
0.00080347
0.0845615
1.10024
0.00113117
0.00949065
0.00080347
0.00118162
0.00080347
0.00080347
0.000803295
0.00080347
0.000800615
0.00080347
0.00080347
0.000803074
0.00080202
0.00080347
0.389864
0.000802473
0.938635
0.000803158
0.780235
0.758041
0.00080347
0.00120091
0.762658
2.03364
5.93587
0.00948249
0.000802618
0.000803476
0.00080347
0.000803476
0.133725
0.000803475
0.193844
0.073493
0.0525897
0.0818618
0.000988253
10.6892
0.00080347
5.21842
6.65539
0.000803469
4.4747
0.000585551
0.000803713
0.00080347
0.000803459
26.4291
0.000802622
0.702554
0.00126309
24.7821
0.493741
0.794647
0.00173149
0.00080347
0.000802714
0.000801975
0.000802212
0.000806275
0.00080347
0.000803137
0.000801645
0.0886515
0.00138633
0.000802144
3.16004
0.000802377
0.000802092
0.000804748
0.000801962
1.91913
0.177954
0.000801971
0.000801464
0.000802253
0.693493
0.0900447
0.000801912
2.31614
0.724766
0.0707482
0.000803721
0.000803953
1.2844
0.786211
0.000803602
0.00080278
0.000803471
0.000804186
11.058
0.000804218
0.515303
0.000803638
0.00080347
0.000802719
0.000802206
0.000893362
17.7121
0.000802757
0.000801868
63.6803
0.119753
0.631237
0.000801872
6.14811
1.8406
0.000802726
0.000803473
0.000802151
0.917043
15.5771
0.000803207
0.00120448
3.11758
0.000802414
0.00104772
3.24614
0.000802978
0.000803468
0.000803151
0.000803455
18.1844
0.000804223
0.000803428
0.000394889
41.8103
0.00101488
0.000997449
6.6552
0.000802615
8.76868
0.494372
0.000801401
0.870282
0.409799
6.40119
0.263269
5.00958
5.45645
0.000802655
2.4186
0.638794
0.000335201
0.000801343
0.000803718
0.000802732
0.000802595
0.000803032
0.00080382
0.000803572
2.13792
0.00080347
0.00080347
0.0128573
0.00080347
0.000802903
3.34942
0.106976
0.0015775
0.000937361
0.000802185
0.260191
20.5605
0.639547
0.000803935
0.000802254
0.000804423
0.234001
7.20912
0.00157307
0.000797712
1.31342
0.000802148
2.67979
0.000813417
0.000802399
0.345869
0.00139967
0.000804088
0.0262413
0.000803056
0.0008035
0.159813
6.76237
7.15911
0.000803034
0.000801565
0.00080347
0.000802349
0.000814065
0.000809237
10.3516
0.00080347
0.00080347
8.15714
0.000802428
0.000802529
0.0642685
0.00080347
6.76202
7.55621
0.00080347
0.000800942
7.71439
2.85918
6.52976
5.22632
0.000801618
12.7159
0.75138
0.0016357
10.0538
0.000831762
0.831087
0.000802723
0.000802949
0.000797291
0.548365
0.00194146
0.000801924
0.121327
0.628929
16.7095
0.099742
0.00080347
0.0606493
0.492395
2.98971
0.00080347
0.000803005
10.0442
0.000802157
0.000803564
0.263529
0.00081679
15.7075
5.51536
0.00247767
0.000942368
0.000802736
0.000801957
8.25785
0.352228
0.000803468
0.000809674
0.00080347
0.283516
0.000803104
0.257897
13.672
0.000810374
0.195196
2.90426
0.0252347
6.94085
7.73644
2.85923
0.000812245
0.758441
6.34422
0.145634
0.00112409
0.00080347
8.01214
0.00080267
0.000813989
0.00201889
0.000674684
0.654939
5.14666
0.00150752
0.794022
5.83292
0.00080258
9.16875
0.00170808
0.799982
2.0244
0.000803016
0.553926
0.32394
6.28486
0.00183876
0.000803471
0.799333
0.00080347
0.00127537
3.1514
0.00121287
0.000804133
0.639244
0.203376
0.000802361
13.1911
0.00080347
0.000802452
0.000803093
0.000802044
0.517951
0.0011841
0.00080347
0.149876
0.513494
0.000803349
0.000809016
51.7565
0.000801594
0.00080347
0.000805969
5.73111
6.30866
0.000803051
11.6491
0.00080347
3.66553
0.311671
0.000822553
0.65711
1.58782
0.0358511
0.00307757
0.00080782
0.49171
11.121
0.27422
5.47313
19.9238
0.00130069
4.80785
0.00080346
11.0959
0.000802889
0.631397
0.000803404
5.53134
0.000802528
0.0012809
0.00104665
0.799961
0.426146
0.00126813
0.000802585
9.36358
0.597277
0.000802433
0.00080347
2.67044
0.0866105
0.000803206
0.851985
0.000803604
5.8473
3.1732
0.856923
0.000803954
0.000802116
4.61027
1.94215
0.00123459
0.000805253
0.00153446
0.000802477
0.00080332
0.285967
0.00080347
0.674513
0.606952
0.000804055
0.000622096
0.00080347
2.35959
1.04552
0.00080347
0.0019986
1.96772
0.000803472
0.00080347
0.000803694
0.253512
0.000803459
0.000812484
0.000801799
0.00145348
0.000811357
0.000812333
0.000806862
0.00080347
0.000802965
0.000802246
0.000803448
0.00080299
0.000802578
0.000802108
0.000802166
5.49135
0.000808024
0.000802397
3.91219
0.000518604
0.000802663
0.00080338
0.000809233
0.00080347
0.00135269
4.88401
0.000801573
0.00080475
0.000812238
0.000841982
0.21424
0.286615
0.00169966
0.54686
8.40528
0.000802081
0.000800011
14.6225
9.24112
0.00125053
0.853631
0.0008068
0.000801588
0.860703
0.00126109
6.25454
0.00148568
0.00153098
0.00112388
0.000801797
7.06355
0.000803331
0.000803477
0.00157729
7.66154
4.81953
0.501992
7.0388
0.00121332
0.00117753
0.00505933
0.000799728
3.02594
6.64373
0.00119609
1.30825
0.000802793
3.39244
0.000801294
0.000895362
0.00080323
2.02634
0.00080347
8.32199
0.000805895
0.000802832
0.00156099
5.1902
0.156948
0.00079816
0.000803415
0.000802363
8.50873
0.000802747
0.00080347
0.523605
0.00080347
5.39498
0.000799903
0.000803166
0.000807566
0.000802521
0.00080243
0.00080347
3.9209
0.000802691
0.0480422
0.27491
0.000808449
0.000802945
0.000803165
0.000803206
0.000802687
0.000803521
6.36535
0.000802806
0.000801873
0.00080347
0.00159121
0.520226
0.00080015
0.000803939
0.00080347
4.29516
0.0008034
0.000802657
0.000803226
0.000802369
0.000802973
0.779105
0.000803087
0.000802646
0.000802741
2.94753
0.000809911
0.000803907
0.00080357
0.770163
0.000811442
0.000815755
0.00455548
0.000801101
0.000814466
0.00080188
5.32968
0.000803026
0.000802285
0.00072409
2.33544
9.96507
0.000803216
10.9933
10.0025
7.98578
0.000801475
9.5092
0.0184639
0.00117946
0.000803557
12.5328
10.0381
0.000802302
0.000803477
0.000802663
0.000802628
12.6218
11.3207
0.000802738
0.00080347
0.000768431
0.00080393
0.000812156
1.00891
0.000802878
4.03941
13.2261
0.000803472
0.000824426
0.238049
0.000819713
0.000772218
0.000803417
0.000804285
0.624886
0.000803121
6.11515
0.000802357
0.000815012
0.00080244
0.824432
0.00156451
0.000802952
0.000803443
0.00080347
0.00080342
0.000858686
0.000802976
7.50757
0.00080318
0.000371273
0.0186248
0.00208884
0.000802326
0.155722
0.863528
0.000802566
0.269662
0.0935796
0.00184247
0.000804863
0.000803414
0.735631
5.71673
0.194156
0.0578703
0.000801765
0.00080347
0.00196399
0.000802869
1.38635
0.000803284
0.00080266
0.00129812
0.0185345
0.000801993
0.00080347
2.14838
0.00080347
0.000803515
0.00080347
0.00080347
1.56271
0.772497
4.50257
0.00080347
0.000802439
0.000801755
8.50057
0.000818811
0.894006
2.7843
0.00152612
0.000803365
0.000802685
0.000802724
0.00080347
5.18767
4.02607
0.00080347
0.000802158
0.000803252
0.000803384
0.651542
0.00080347
0.730742
0.00080347
0.767055
0.00138616
2.85745
0.000803471
0.000803469
0.00080347
0.00080485
0.00080457
0.000803797
0.00080347
0.626254
0.000806498
0.435722
0.532097
1.47141
0.000803062
0.000802204
0.000803475
0.00080347
0.000817593
7.48018
0.00080347
0.00080339
0.000802979
0.811683
0.0926488
5.63578
17.1059
9.27967
0.69026
0.00215148
30.244
0.000793886
0.613159
0.000801417
0.000798849
0.00176254
0.198464
0.962011
0.0042494
0.0008052
0.69147
1.21282
0.00080347
0.00080347
0.000813737
0.000804065
0.000801905
0.000802729
0.00127013
0.510527
0.000803474
5.40571
1.82959
0.00080347
0.00080347
0.00080347
0.000802425
0.00080347
0.000803469
0.000802919
0.00144325
3.99296
0.000809711
0.414651
1.13733
0.000812973
4.77024
0.741522
0.000803054
0.00126637
0.0271302
0.000822146
0.00126327
0.00132514
11.4088
0.908886
0.000809352
21.6964
0.00080347
0.000803358
0.000266352
0.000803529
0.000804378
0.000802507
0.000803471
3.83381
0.000803458
0.000803422
0.000803127
0.00080347
0.000803545
0.000804513
0.000803731
0.000808611
0.835062
0.00080347
1.50302
0.000802248
0.000834934
0.000804123
0.000803469
62.3445
0.000808418
0.00080558
0.54531
0.000347648
0.000802035
0.000800356
0.000577834
0.00986694
0.390923
0.000828653
0.00080347
19.4326
0.000802359
0.000803068
0.000802215
0.121026
0.000801784
0.000802833
0.000802262
2.36628
0.0011717
0.000801305
0.00127725
0.00080209
0.848298
0.00158621
0.000803301
0.00108217
0.000803473
0.000803108
0.000804514
0.000803444
0.00080347
0.000801784
0.00132127
0.000803467
0.000802611
0.000820127
0.848443
7.4148
0.000803229
0.000815555
0.00140837
0.000817753
0.101996
0.604641
0.0127665
0.000827474
0.000811938
0.00130734
0.000802847
0.000811205
0.000803439
2.18098
0.528082
0.00132631
0.672431
0.978189
0.000803038
0.000803475
1.07491
0.00080347
0.000803303
0.0495578
0.00125518
0.000802275
0.000802474
0.000645678
0.000802815
0.000802118
0.000802023
0.00080347
0.000802159
0.8515
0.000802601
0.000803385
0.000801706
0.000802173
0.00080347
0.197036
0.299353
0.00151286
0.000802652
0.00122596
0.00283628
0.000802549
0.000803446
0.000803288
6.53998
0.667465
21.1592
0.000803645
5.68909
0.000802316
0.000802995
0.27953
0.559766
0.000803767
0.000806682
0.00080347
0.000802338
0.000801202
0.000802248
0.000803606
0.000803756
0.453023
0.0331197
0.946462
0.000802224
0.000802129
11.1945
0.0008024
7.02093
0.000803457
0.00121399
0.000803172
0.00080347
0.000803421
0.28089
0.143334
0.000797026
0.000798244
0.00080347
0.00080347
0.000243162
0.000803237
1.11195
0.00132308
6.05702
0.591193
0.00080347
7.15623
0.00080347
0.000802871
0.00080347
0.00080347
0.000802059
0.000803298
0.796684
0.00080271
0.00198687
0.00080347
0.000816706
0.000803921
32.6911
0.000801827
0.000800745
2.12587
0.782799
0.000803463
0.000802147
0.000802303
0.000803502
0.0417393
0.000802867
0.779633
0.000805123
0.000803436
0.00533066
7.44788
0.00080298
0.000762008
0.00080308
0.000831777
0.00080347
0.00080347
13.7646
0.000804486
0.00080347
0.00172023
0.00080347
0.000802631
0.000803439
0.000803474
0.000810415
0.00253848
0.000803004
0.000813639
12.1737
6.59527
2.10548
0.000803472
0.000803417
84.9752
0.000803449
0.000810653
3.38559
0.000803509
0.415774
0.403869
2.33213
0.730269
0.000803068
0.000803564
0.000802999
0.00080347
0.000803655
0.651576
0.000801671
0.629952
0.000803152
0.213008
0.0134157
0.000802971
2.54546
0.000801681
0.000803188
0.00097466
57.9666
0.916511
0.00080347
0.672321
0.000802242
0.00080347
0.000803446
0.000804212
0.000803837
0.00080347
6.01913
0.670181
0.000813036
0.000802212
0.000812786
0.00080347
13.2687
0.00080347
5.59254
0.000803371
0.00080347
0.000799323
0.00137386
0.000802887
11.5182
7.9234
0.000803133
0.000803127
0.000803467
3.15575
0.000803328
0.000803469
0.000802181
1.53436
0.000801893
0.00080347
0.000803273
0.0690322
6.27902
0.794666
6.29263
2.83337
15.6778
0.000801941
0.000804161
0.000808
7.59397
0.000803977
0.000803488
5.02037
0.00103186
0.203081
0.000802928
0.000802612
0.710358
0.652902
6.86576
0.00080347
0.000802236
3.27227
46.2253
0.00872001
7.23854
0.113617
0.000803469
0.000803772
9.58344
0.000802393
0.000803464
0.00136358
7.04376
0.000703443
3.66928
0.729018
6.71702
0.000801837
0.339616
5.3448
0.000802191
0.000802808
8.08192
0.000809599
0.000802215
0.00080346
0.00080282
0.000816873
0.00195792
0.000811759
3.37661
0.000802237
0.00080347
0.00080315
0.000798531
0.00111563
0.0335404
0.000802371
0.000802641
0.000802797
2.8782
6.83925
0.000801788
0.000803242
0.000763522
0.000801963
0.000810457
0.000803469
0.000802422
6.33824
0.00081511
2.49868
0.00080347
5.74916
0.000802685
1.77913
1.94548
6.97542
0.000803247
0.000816487
3.36753
0.000801825
0.000803461
0.000802765
0.000802352
0.000324105
6.47437e-05
4.16669
6.54876
4.96891
8.37418
0.00123006
4.50705
0.00127558
0.00146376
0.000803153
0.000802741
0.00126306
0.000803092
0.00116314
0.000803174
0.000805723
0.000803948
0.0013559
0.000802271
0.000818895
0.0013458
0.000803314
0.00080347
0.000803926
0.000801989
0.000803601
0.00080347
0.507749
0.000802344
0.000802347
5.18298
0.000801133
8.04924
8.04841
0.684144
8.89691
0.672512
8.83824
0.743776
0.00080347
0.00080347
0.000801793
0.593384
0.00080347
1.83392
0.000802605
0.000807547
0.000803453
0.000802244
0.000801681
0.000801814
0.000801851
0.000787161
0.00080231
0.785822
0.000802213
0.000803464
15.3529
0.000813281
0.000802438
2.1672
0.568388
0.000803097
0.000802116
0.000803349
0.978419
2.33219
4.93577
13.3464
5.80869
0.00080262
0.000803444
0.000803435
0.000805513
0.000801721
0.000803395
0.001276
0.000803255
0.000803438
0.000803385
0.000809422
0.00080184
0.000801956
0.000803306
0.000804072
2.96102
3.45762
6.58686
0.0318312
0.219001
0.000802277
0.000801703
6.74903
0.000767263
0.000803355
7.12759
0.00125654
0.000802857
0.000802478
0.00217279
1.0691
0.0858469
0.000802068
0.00080347
0.00141709
5.03716
0.00080347
0.000803097
0.00080347
0.0252745
12.5109
0.000814797
0.00144942
0.000802988
0.000803474
0.000803331
0.000801385
0.000803103
0.00080269
0.000801816
0.000803166
0.000802235
0.000801531
0.000801852
0.00080249
0.000802215
3.7911e-05
0.000803019
0.0268578
0.490889
7.63216
4.65505
0.681612
0.738302
0.473435
1.35653
0.00080347
0.000804824
0.00079519
0.0832705
0.345914
0.583319
0.0613026
5.38318
5.18975
4.40503
5.49794
0.0012131
0.000314662
0.000815762
4.70466
0.00494626
8.4469
0.000803454
0.000801593
0.000803767
0.00080428
0.619694
0.00855761
0.0097339
6.75949
0.000812276
0.000804107
0.000802888
0.0008031
1.49963
0.00114037
0.000803917
0.000802466
0.985848
0.000350317
0.000803108
0.000803183
0.000804157
0.000803697
0.00080347
0.000802083
0.687445
0.000803275
0.00080347
0.000801938
9.92792
0.000811209
0.000768096
0.000818247
0.000803287
2.69858
0.000802214
0.000809762
0.000801267
0.0355618
0.413524
0.774139
0.00080307
4.56423
0.000802586
0.000802346
9.81858
1.16921
2.02531
0.859177
0.892028
0.00080347
16.5261
0.000803182
0.00080347
0.00080347
0.000809244
0.00080347
0.200037
0.000803343
0.303421
5.14874
0.000803825
0.000802741
0.00212899
0.000811324
0.797934
0.00080347
0.00386711
0.00080347
0.000806141
7.38242
0.00080189
0.000801803
8.3721
0.000803152
0.000803395
0.000802921
14.7328
4.17314
0.00080299
6.57743
0.000803374
0.000803353
0.000802968
0.000803475
0.000801459
0.000801041
0.000801707
0.00080347
0.000802805
0.000803866
0.0153539
0.000803408
0.000274714
0.00080546
0.00300757
0.00128798
0.155468
8.94143
0.00080347
0.00080347
0.00080141
9.77467
24.7275
0.00080347
0.000801444
13.6578
9.96094
0.0624856
2.75068
3.74778
0.000801492
0.582089
0.609248
0.000812639
0.000801718
0.000803357
0.000809484
0.805667
0.000783851
13.4398
0.00080347
0.000802487
0.670536
47.753
0.000811094
12.5556
14.5
0.000802974
0.000806617
0.00151552
0.000802016
8.08024
0.00139952
0.0014107
0.00157389
0.000802916
0.000802382
0.951552
0.00397562
0.00080344
0.000800974
0.000802058
0.000802425
0.000803246
0.000803354
0.64273
0.66988
0.346641
0.00080347
0.000801652
0.00080347
0.000803365
0.000807292
0.000803081
0.000804796
0.00081456
0.0720844
0.000801755
0.510442
0.639862
0.000803449
0.000806259
0.000802528
3.4469
0.00080347
0.000816654
0.344588
0.783645
0.000801858
0.00080347
0.000803035
0.000801932
0.000811957
2.92508
0.000815215
0.000803901
0.19362
6.71743
0.000802164
2.92483
0.000796578
0.000656862
0.000861347
0.000802099
1.2445
0.000802768
0.000803184
0.000804251
0.000809607
0.000810627
0.000807535
0.0017177
0.000811033
0.00118922
0.00080811
0.000102978
0.000811709
0.00080279
0.000812415
0.000806209
0.00167226
0.570492
0.69237
0.000817423
0.000839023
0.00131208
0.000802464
0.00153574
0.85402
7.05277
0.00154724
0.269132
0.000802663
0.00195571
0.134388
0.000803334
1.80783
1.40782
3.33917
0.00150281
0.00131801
0.431151
0.000803389
0.000801371
0.000524367
14.5742
0.000791126
0.000802997
0.0559174
0.000806302
0.000803546
0.0014222
0.363741
13.5421
0.00080207
0.431454
0.00080231
0.429751
0.000804754
0.000802594
1.01854
0.000804508
0.00159191
11.3299
9.34935e-05
0.00142826
7.44513
0.000813348
0.0985912
0.000803186
0.772657
1.64001
0.00057086
0.000803691
0.000796196
1.22026
6.5112
3.86191
0.000802537
0.000804641
6.55244
0.000802193
0.000803361
6.04023
5.3554
0.00145901
0.000802171
0.00080119
0.000802909
0.764913
0.00080356
0.000801164
0.00080347
0.137847
0.00080441
0.00080347
0.000848438
0.00186819
0.000801866
0.000802044
8.20774
6.45108
0.000801737
0.000802427
0.867189
0.10961
0.000805471
0.359907
0.00146393
0.00181984
0.0863255
0.000802599
0.0481558
0.0012253
0.000802745
0.000803607
3.69113
0.0111288
1.52938
0.000802026
22.4814
0.179253
0.00778916
0.489398
1.23907e-06
4.39053
6.29063
8.49273
0.486122
5.8178
0.683963
0.000803203
0.000804162
0.712537
0.000802235
0.000802526
0.653105
0.185648
0.000803524
0.000807102
0.000801545
0.000801354
0.00134141
0.646364
0.000801774
0.156595
0.000803379
0.000802764
0.524095
0.811598
5.45495
0.000811101
0.985249
19.1529
6.57248
13.8158
0.000803478
0.000803459
0.00080272
0.000803001
0.00128027
0.00157908
0.000803304
0.000802672
6.45013
1.72581
0.00164014
20.1322
0.648389
19.3634
0.00134005
3.2271
0.000802281
6.16384
0.00127485
0.655489
0.000804429
0.00080347
4.44516
0.00080347
0.000803472
0.000803318
0.00080347
0.00080347
0.00119793
0.643605
0.00235897
0.00080347
13.4879
9.63824
0.00119064
0.00080347
0.000803438
0.000802189
0.000802784
0.0812262
0.000802518
0.892389
0.893783
0.000803473
0.00080347
9.57913
20.975
1.24788
0.801983
0.000804193
0.00157417
0.746636
0.00080347
0.00080347
0.00080286
19.3776
0.00080347
0.00080347
0.00080347
0.00080347
0.00126465
0.000803083
0.000810551
14.737
0.000993573
0.00186934
0.000802154
0.682714
0.763604
7.55516
0.000137853
0.000803286
1.25855
0.000803082
0.000803474
0.000803474
0.885038
0.000803467
0.00130241
0.79179
0.00080347
0.00080347
0.614633
0.000803476
0.00080347
2.30968
0.803048
0.000812981
0.812301
0.000803237
0.00080347
0.00080347
0.00080347
0.000803469
1.36628
0.000803452
1.11979
0.00124601
0.00080347
0.00080347
0.57184
0.000805034
0.589146
0.00123754
0.00080347
0.00080347
0.000803475
0.000803466
0.00117619
0.675509
0.00080347
0.00128493
0.69308
0.00080347
0.00080347
0.0012187
0.000803465
0.000803472
0.00123046
0.00120269
0.00080347
0.000803474
4.8647
0.620619
0.00127055
0.632619
0.769784
0.000819943
0.817009
0.000803469
0.00080347
0.000803455
0.000803468
0.00080347
0.000811148
0.157443
0.000803475
0.00121424
5.57158
0.00125708
0.000806967
0.000803438
1.50817
0.0651039
0.00126101
1.67964
0.00080347
0.140531
0.000803374
0.000803304
0.00080347
0.000803469
0.573872
0.000803475
0.76963
0.000803455
0.00080347
0.00080347
0.000803468
0.00127208
0.00117402
0.635754
1.0123
0.00080347
0.00080347
2.22293
3.92095
0.00080347
0.000803188
2.59021
1.09045
0.00058643
0.799114
0.000717018
0.000803477
0.00080347
0.00080347
0.00080347
0.0011918
0.846828
0.911341
0.000803471
0.000803468
0.00123931
0.000803403
0.632003
0.000802315
0.00080347
0.000802126
0.00128765
0.00121008
0.0012749
0.00080347
0.00116612
0.745292
0.000802324
0.000802085
0.00078966
0.739354
0.000801023
0.00080347
0.000803864
0.000802527
0.00080347
0.732008
0.00138087
0.000803474
0.00080347
0.93716
0.000801656
0.00080347
0.522589
0.527777
0.00131799
0.00080347
0.00080347
0.00130633
0.00080347
0.00080347
0.000803874
0.000803472
0.00080347
0.00080347
0.00080347
0.00080347
5.26186
0.00080347
0.00080347
0.000845709
7.44146
0.324154
15.2226
6.32753
0.000803929
0.524616
6.12641
2.95154
0.0012277
7.4179
0.000803441
0.677415
4.26891
0.40392
6.02149
0.00129978
6.52959
0.103713
0.00700352
6.38384
0.000803825
0.00080347
0.0201932
0.000802777
10.4042
6.12436
0.520661
0.0386748
8.05474
5.06521
15.5558
0.315854
6.7412
0.000801378
0.00080347
0.000802867
4.47072
0.828207
0.000801864
0.00125491
0.00080268
0.000803475
0.000802435
0.724755
0.000809709
0.00127502
0.00080381
0.000801892
0.000813233
0.000803619
0.896128
0.00129755