/*--------------------------------*- C++ -*----------------------------------*\
| =========                 |                                                 |
| \\      /  F ield         | OpenFOAM: The Open Source CFD Toolbox           |
|  \\    /   O peration     | Version:  2312                                  |
|   \\  /    A nd           | Website:  www.openfoam.com                      |
|    \\/     M anipulation  |                                                 |
\*---------------------------------------------------------------------------*/
FoamFile
{
    version     2.0;
    format      ascii;
    arch        "LSB;label=32;scalar=64";
    class       volScalarField;
    location    "0.3";
    object      epsilon;
}
// * * * * * * * * * * * * * * * * * * * * * * * * * * * * * * * * * * * * * //

dimensions      [0 2 -3 0 0 0 0];

internalField   nonuniform List<scalar> 
32842
(
0.078662
0.0792834
0.0787431
0.0787428
0.0913716
0.0787428
41852
5141.72
0.0787428
0.0787428
685.871
467.918
0.0787139
0.0787428
0.0787971
0.0787586
0.0787405
0.0787428
0.0787107
0.0909997
0.092777
0.0919487
0.0906125
0.0787431
0.0901695
0.0787428
0.0787428
0.0868713
1.66937
0.0786168
912.267
0.167485
148.078
0.0786697
351.666
8658.39
0.0922208
0.0786262
0.0787225
0.0786803
0.0787429
0.0925627
0.0787428
0.0787428
0.211552
0.0786485
1235.85
0.0786766
0.092063
0.441184
799.946
0.0787428
0.137919
1.18781
0.078743
0.172611
0.0787428
3.66929
0.0787429
0.0787428
4352.73
0.142906
0.128393
0.0925962
0.0786817
76.5174
0.0787429
0.120692
0.182542
0.0794485
0.0863141
13.3285
0.160831
0.0787428
0.0787428
0.0784868
0.0176988
0.0787428
0.16209
1720.07
0.0912111
0.0787428
0.0787428
0.147149
0.108146
0.0787428
0.0787428
0.193822
0.256871
0.0787428
0.0913632
0.0920364
142.188
0.0787546
0.0787428
0.0786482
0.166107
0.0787843
0.114267
0.0787428
0.0787428
0.096047
0.0798663
56.4265
0.162293
0.176039
64.918
0.0798757
0.147992
0.0791204
0.0787428
0.0787428
68.0934
0.0787428
0.0797165
0.0922503
0.150112
25.7269
0.0794089
0.0786221
0.0787428
0.0787428
0.128898
0.078743
0.0767316
0.163945
0.196005
0.0786681
291.586
0.078743
0.0787428
0.08114
0.103602
0.153603
0.101032
0.0787945
0.0775091
4.82094
0.078649
0.0787412
0.151618
0.0786745
0.15365
0.0901355
0.0787127
0.0786818
2601.27
0.0786701
0.0787428
0.0787415
0.0812029
0.392943
0.0888781
1109.89
0.0788165
0.0787428
0.0787428
0.078674
0.0786504
0.0787428
0.0786731
0.0787428
0.0902999
0.0787428
0.0789676
0.0786535
0.0787428
0.0787122
0.0786825
332.199
0.636323
0.0976871
56.1238
0.0787428
0.0929782
138.723
0.0787039
0.0797732
0.0787428
0.0787428
0.0866848
0.0787401
0.0787399
0.0787428
0.14932
0.0787389
0.15836
0.0787425
0.0787013
0.0787308
0.0787362
0.250051
0.185476
0.0787428
0.179126
0.0787491
0.078588
0.0787303
0.166189
0.0787428
0.0786515
0.0787643
0.554192
279.044
12.6188
0.127404
0.0787437
0.0927606
0.175242
0.0786734
0.0786909
0.0797769
101.165
82.4546
0.0787416
0.0787428
0.0786803
0.0787054
0.0786211
0.0788068
0.117032
0.0787428
0.0787428
0.078604
0.09664
0.207039
0.078743
0.173113
0.0787152
838.62
0.0787428
0.0787428
0.0786139
0.0787428
403.299
0.0911412
0.0915581
0.0241765
0.0787553
0.143298
0.545206
0.0787379
0.0786331
189.645
0.0786987
0.078746
0.134997
0.0787428
0.0787428
0.0787422
0.0787428
0.0787428
0.0787894
0.16726
0.0787759
0.0787428
0.0787339
67.384
0.0787416
0.0786644
0.0787428
0.0787428
0.0787428
0.078743
0.214808
0.0787428
0.0787428
0.0787209
0.0785916
0.078743
0.0787428
0.16823
0.0787428
0.20892
0.0787428
15.0553
0.078642
0.0951747
0.0787428
0.0786564
0.0787428
170.403
376.31
0.0787428
0.0786566
0.209645
75.9683
0.0787428
0.092688
0.0787428
4908.34
0.078743
0.182871
257.49
0.0689273
0.0779413
0.183838
0.0787428
0.0786679
0.0900881
939.947
0.0787431
0.0787424
0.078743
0.0787428
0.0787428
0.0787428
0.0787428
0.0785965
0.141151
0.0787424
0.0787428
0.144774
0.0787428
0.0787428
0.0787421
0.0786807
378.139
0.0787428
0.0786101
0.0786414
0.204101
0.0787427
0.0833031
0.078743
0.0787425
0.0786559
0.078743
0.0787263
0.0787428
0.0785965
0.161497
0.0787428
0.0787428
0.0787167
0.0787428
0.087747
0.182532
0.0787428
0.0787396
0.078682
0.0786062
0.0667466
0.0787428
0.141422
0.0787428
0.0787428
0.171887
0.123545
0.153854
0.0790666
85.3887
0.0786652
0.166599
0.0787428
0.0786799
0.0905731
0.0786639
0.0787428
0.078576
0.0787428
0.0787428
0.0787281
0.733742
0.0787428
0.0787609
0.0787428
0.0787428
0.0158274
0.0897014
0.0787428
11276.7
0.0787175
0.098518
0.0787428
0.146722
0.0944243
0.0787428
0.0808707
0.0904002
0.078629
0.139295
0.165328
0.0786413
0.0787565
0.0787431
0.0787428
0.0787428
0.0787428
0.078712
0.0787412
0.0786636
0.078742
0.0787428
0.0787365
0.0787428
0.0787088
0.0786134
0.0786383
0.0788352
1093.36
0.0787428
0.0786326
0.0792134
257.615
0.0788777
0.0786176
0.0992003
0.0787428
0.0917803
0.190012
0.0787269
0.0787428
0.0787148
0.0787381
0.0786629
0.0786659
0.0786691
0.0787428
94573.3
0.0787123
0.159399
0.0787428
0.0928387
7570.87
0.0787428
0.0786685
0.0787428
0.0769355
0.0787429
0.0784855
0.0787428
0.0787428
0.160795
0.0910754
0.0837745
0.0787073
7596.27
46.8209
0.151346
0.0926333
0.743607
0.0922863
0.148956
0.0787412
0.0786613
0.084638
0.078743
0.0893049
0.305418
0.0787431
0.0787676
0.0788246
106.992
0.0886165
0.0786787
0.0786701
0.0917366
0.0788777
0.0786966
0.0787684
0.0934447
0.0787428
0.0787429
0.0787428
0.0787645
0.0786908
0.147522
0.0787025
0.0794925
0.0787428
0.093632
0.0914461
0.0787428
0.0786955
0.146973
0.157103
0.0787428
0.078743
0.0787428
0.0787428
0.091256
0.0786675
0.610069
0.147254
0.0787427
0.078743
0.116055
0.079373
0.0787428
0.0933641
0.0797698
0.084971
0.0795628
0.152278
0.0928835
0.189167
0.145726
0.080772
0.0786314
0.0921134
113.508
0.0789237
0.155623
0.0926242
0.114683
0.088719
0.0787428
94.2323
0.0931621
0.0787185
0.16092
0.0786421
0.159717
0.0787006
0.078743
0.0946442
0.0988747
88.9687
5933.29
7.0167
48.7842
68.365
26.9962
123.011
0.151767
0.0786967
0.0787411
0.0786799
0.147825
0.814868
0.12807
0.132331
0.0787654
0.0787428
0.0888514
0.639184
0.0787431
4361.07
5.77254
0.0787406
1646.31
0.0707267
12.3841
0.0787343
0.0787428
0.0787644
0.153565
490.761
0.0787428
0.0937721
0.0787059
0.076329
0.182387
0.0786787
0.0786741
0.0787422
0.0787428
0.477569
0.224942
0.0787428
0.0787428
0.0788036
0.163163
0.521739
0.118918
0.0786478
0.0787428
0.0787428
300.287
0.146205
0.191293
45.2405
0.185402
0.0787428
4.55283
0.185439
0.0786765
612.376
0.0787428
0.0913279
0.0787428
0.0802436
0.0915754
0.0904201
0.0787428
0.0786911
0.0787072
0.0786497
0.146434
0.0930524
0.0787429
0.0786303
358.207
0.0787428
0.111133
193.307
0.125849
0.0787742
0.0787428
111.356
178.725
663.495
0.0786911
39.0405
0.103181
0.65426
0.0804901
0.228992
0.0787429
0.0787428
0.0787431
0.0787428
0.0787428
0.352616
0.0917034
0.078708
0.0787428
0.0786834
0.0787428
0.0786086
0.0787412
0.0787569
0.329236
0.119493
0.0786679
0.0787428
0.237977
0.227859
5.44954
0.0786842
0.0930624
0.0787428
0.0787428
0.0788213
202.208
0.162349
0.0787428
0.0909594
0.0787428
0.0986831
0.0787428
0.0787428
0.0787429
0.0787431
0.118004
0.0787428
0.0787428
8.68468
0.614023
0.0784386
0.0787428
0.0787428
0.183895
0.106758
0.0787428
0.158352
0.0909782
0.0787428
0.0787428
992
344.583
0.0787428
0.115738
1240.2
0.0787804
0.0634515
0.0786868
0.0787428
0.092336
0.094403
0.0813418
0.0788372
1218
0.0787428
13.5625
0.0787428
0.0787428
112.929
446.16
0.685014
0.181335
0.0787428
0.0787428
0.0895836
0.0906991
506.22
2117.27
268.207
530.876
0.0788126
0.0797501
193.198
0.0787428
0.442271
0.0787208
0.0787162
0.134882
2148.81
0.078775
0.078765
0.0787428
0.0787385
0.0787407
0.0787428
0.078681
0.0787428
0.0787428
0.142034
0.0787428
0.0786372
0.0787428
0.0920257
0.0787428
0.0787027
0.0786517
0.176568
0.0787428
0.0786539
0.0784128
0.0787287
0.0787705
0.0787429
0.0813194
0.0786792
0.0786707
0.0786248
0.0786524
0.0560148
0.0787711
0.0927546
0.0841515
0.0933911
0.0787428
0.0942734
0.10078
0.187945
0.0786655
0.0786298
0.0913355
0.203615
0.0787428
0.202454
0.0905392
0.0787428
0.0787428
0.0816118
0.078712
0.0787341
0.137079
0.0787428
0.0787427
0.0786743
0.092696
0.158797
0.0786302
0.0925676
0.0787428
0.0894266
1120.43
576.957
0.0897207
0.0786998
0.124597
0.0787424
0.0787428
0.0787285
0.0786025
0.0787249
0.0787377
0.147781
0.0787428
0.0802692
0.13736
0.0933178
0.0786687
0.0793063
0.0787428
0.123061
0.0990858
0.152521
0.0786748
0.187859
0.203101
0.0919703
0.078743
0.0888117
0.0787386
0.0936209
0.0786822
0.0787402
0.0923411
299.217
0.162475
0.0787691
127.713
0.0787656
0.192612
0.0787621
0.0787428
0.0787415
0.0787428
0.0787262
0.078819
0.0787793
0.0787425
0.0787428
0.0787419
0.0787497
0.0786491
0.168764
0.0790188
0.146923
0.0786699
0.0786973
0.0914506
3.17004
0.0787635
0.0786633
0.0925272
0.0787428
0.0794857
0.078743
0.0965676
0.128674
0.0787428
0.0787428
0.078703
0.0787616
0.0787428
0.0790158
0.0787413
0.0787428
7258.86
0.0787047
10.1968
0.078685
0.0786802
0.0788606
0.0790457
0.090052
0.0786901
0.0787428
0.0787428
0.0787409
0.511477
0.0787428
0.0787212
0.154495
0.0787751
0.163745
0.0787427
141.541
0.0786388
0.0786928
0.123966
211.516
0.0786385
0.0786971
121.067
0.0940723
0.0787181
0.0786489
0.0787428
0.0786504
0.0786562
0.165091
6.92347
0.157495
0.0787428
0.149764
0.0787391
0.0786407
0.0786294
0.0971237
0.0843591
0.078742
0.0786532
0.0787428
0.0786824
0.0792286
0.0787428
0.0787035
0.0786701
0.0788661
0.192245
0.0937537
0.0787428
0.282174
0.569612
0.078682
0.0659489
0.0563048
0.0787428
0.0787426
0.0786849
0.205439
0.0787428
0.0787428
0.169669
0.0920117
0.0787424
0.0787428
0.0787428
0.0786271
0.0843137
0.481805
0.0787428
0.0787
0.193657
0.0787107
0.0786671
4.39456
0.0786248
0.0787428
0.078743
0.0787309
0.168239
0.0787218
0.0786661
0.0787428
0.0787137
0.0950803
0.0787428
0.193866
0.0913863
199.255
0.0787428
0.0787428
0.0787075
0.078694
0.0786021
0.0787428
0.0531074
59.906
0.0883837
0.172223
0.0787428
0.0898162
0.0787428
0.0787428
0.0787377
0.0787428
0.0785571
0.0787428
0.0787428
0.0787166
0.078666
0.0787428
3497.34
0.0786904
0.120937
0.0787355
0.143068
0.147908
0.0787428
0.0903142
0.144424
302.528
210.872
0.252873
0.0787042
0.0787431
0.0787428
0.0787431
0.559701
0.078743
0.314488
0.399409
0.344995
0.31453
0.0844038
51.8223
0.0787428
1.66689
7427.72
0.0787428
646.014
0.0823687
0.0787867
0.0787428
0.0787421
0.712327
0.0787066
0.154848
0.0918143
333.856
0.214378
0.138871
0.0982779
0.0787428
0.0787136
0.0786697
0.0786745
0.0788245
0.0787428
0.0787208
0.0786432
0.993516
0.0947449
0.0786804
245.169
0.0786918
0.0786681
0.0789369
0.0786584
870.871
0.219511
0.0786548
0.0786274
0.0786756
0.157634
0.27955
0.0786578
0.284619
0.143694
15.8844
0.078791
0.0788103
1899.11
0.140854
0.0787704
0.0786956
0.0787428
0.0788373
29.1648
0.0788626
0.203008
0.0787212
0.0787428
0.0786933
0.07868
0.0824451
0.954644
0.0787022
0.0786544
256.227
0.292874
0.173555
0.0786495
35.0948
1643.98
0.0786938
0.0787429
0.0786649
0.122791
27.5721
0.0787254
0.0879905
1.47914
0.0786778
0.0877762
1.47438
0.0787329
0.0787427
0.0787184
0.0787418
177.634
0.078825
0.0787889
0.0629965
4.16633
0.0858913
0.0838275
0.535025
0.0787062
396.805
0.21345
0.0786181
0.12796
0.281813
17.7709
0.213213
15.5076
13.0708
0.0786985
1258.32
0.171242
0.0591726
0.0786165
0.0787786
0.0786942
0.0787072
0.0787338
0.0788157
0.0787768
211.585
0.0787428
0.0787428
0.190996
0.0787428
0.0787705
1233.78
0.355404
0.100845
0.0855034
0.0786735
0.588324
237.656
0.169223
0.0788209
0.0786768
0.0789283
0.556075
350.263
0.0951819
0.0805801
380.494
0.078674
0.397632
0.0794757
0.0786731
2.2829
0.0953259
0.0788206
0.479779
0.0787397
0.0787557
0.387543
444.209
116.847
0.0787413
0.0786341
0.0787428
0.0786937
0.080067
0.0808813
1.50729
0.0787428
0.0787428
56.4735
0.0786896
0.0786909
0.513128
0.0787428
22.4898
42.9432
0.0787428
0.0785874
34.4795
5.80438
21.7663
13.7417
0.0786325
196.283
32.0189
0.099296
215.03
0.0817263
0.133072
0.0787118
0.0787084
0.0794024
6.56485
0.100779
0.0786655
0.693812
0.176895
4.24346
1.27635
0.0787428
0.791281
1.32172
0.0557863
0.0787428
0.0787121
3.3486
0.0786754
0.0787578
0.250924
0.0806143
216.855
2.80308
0.109501
0.0833457
0.0787055
0.0786609
9.0274
0.398139
0.0787426
0.0793888
0.0787428
0.485817
0.0787776
0.235586
278.166
0.0794382
0.0458422
107.921
0.132517
24.7171
73.7352
1375.36
0.079915
0.146802
44.0681
0.102332
0.0882242
0.0787428
25.6744
0.078718
0.0794838
0.103035
0.0426587
0.166678
0.392347
0.0947023
0.13599
6630.86
0.0787055
50.9002
0.0978988
0.134903
50.5067
0.0787419
0.0333282
0.137302
104.52
0.0990956
0.0787429
0.139924
0.0787428
0.0908599
61711.8
0.0905737
0.0787849
0.171671
0.35556
0.0786775
247
0.0787428
0.0786759
0.0787265
0.078673
9.12451
0.0898997
0.0787428
0.224144
0.226384
0.0787659
0.0793077
2.65606
0.078626
0.0787428
0.0790619
29.4617
8.68055
0.078734
115.631
0.0787428
197.5
0.175517
0.0815358
0.166238
21.0687
0.284819
0.118956
0.079161
0.528025
4.24888
525.477
623.999
187.299
0.0927953
8.73175
0.0787422
189.449
0.0787683
0.172564
0.078719
2.94642
0.0786983
0.0923091
0.0851032
74.2377
22.0701
0.0921655
0.0787008
351.649
0.181898
0.0786845
0.0787428
70.9697
0.302741
0.0787271
0.132021
0.0787787
0.705241
1.30912
0.131313
0.0788277
0.0786743
5.91235
1659.05
0.0911938
0.0790017
0.0949527
0.0786835
0.0787819
10.7627
0.0787428
0.157999
0.182399
0.0788941
0.17918
0.0787428
696.573
1997.08
0.0787428
0.103579
25.9475
0.0787429
0.0787428
0.0787865
0.28296
0.0787421
0.0796705
0.0786525
0.0949034
0.0795929
0.0800355
0.0790643
0.0787428
0.0787307
0.0786854
0.0787414
0.0787307
0.0787197
0.0786681
0.0786704
27.2069
0.0793722
0.078689
1013.82
0.0706399
0.0787078
0.0787572
0.079415
0.0787428
0.0937696
5.56006
0.078623
0.0789548
0.0797244
0.0823461
0.259259
768.876
0.0998357
0.193904
143.967
0.0786682
0.0785244
204.892
164.537
0.0916196
0.128207
0.0790877
0.0786208
1308.32
0.091797
353.147
0.0931266
0.0957639
0.0882899
0.0786399
291.135
0.0787569
0.0787431
0.0962332
226.509
1576.78
0.212432
177.616
0.0906405
0.0896646
0.137744
0.078564
531.956
33.8732
0.0901715
287.206
0.0786983
976.768
0.0786064
0.083396
0.0787029
2.7042
0.0787428
109.695
0.0788677
0.0787171
0.0961414
3.17807
0.129855
0.0818743
0.0787391
0.0786816
18.5222
0.0787096
0.0787428
3051.56
0.0787428
13.2518
0.0785667
0.0787056
0.0790347
0.0787067
0.0787004
0.0787428
15.6503
0.0787021
0.713371
0.373735
0.0791798
0.0787262
0.0787523
0.078736
0.078676
0.0787574
91.8552
0.0787089
0.078648
0.0787428
0.0957352
0.20505
0.078532
0.0787704
0.0787428
540.957
0.0787388
0.0787162
0.078754
0.0786918
0.078721
0.141421
0.0787441
0.0787012
0.0787183
910.387
0.0789635
0.0788187
0.0787682
0.143176
0.0796934
0.0802295
0.0428354
0.0785973
0.0799251
0.0786174
2.11639
0.0787136
0.0786869
0.0758351
0.468309
19.6839
0.0787681
203.726
183.066
190.496
0.0786252
219.896
0.0425757
0.089703
0.0787823
92.918
67.6065
0.0786745
0.0787431
0.0787465
0.0787046
25.684
38.6299
0.0786947
0.0787428
0.0774971
0.0788069
0.0797192
1652.06
0.0787277
867.003
282.251
0.0787429
0.0820557
0.2881
0.0814529
0.0745285
0.0787391
0.0788442
0.174471
0.0787385
457.256
0.0786784
0.0805896
0.0786932
0.133448
0.095365
0.0787087
0.0787412
0.0787428
0.0787395
0.0807633
0.0787095
13.7465
0.0787236
0.0764941
0.0492402
0.104197
0.0786745
0.0165043
0.132704
0.0786896
66.6793
1.67703
0.0988044
0.0789146
0.0787391
0.150322
2.17157
0.464124
0.226543
0.0786481
0.0787428
0.105842
0.078713
0.181897
0.0787305
0.0787049
0.0924194
0.201234
0.0786627
0.0787428
263.395
0.0787428
0.0787576
0.0787428
0.0787428
17.5999
0.134591
65.1626
0.0787428
0.0786879
0.0786408
357.256
0.0823833
1403.05
1098.53
0.094747
0.0787475
0.078703
0.0787079
0.0787428
618.57
881.045
0.0787428
0.0786702
0.0787397
0.0787371
0.167815
0.0787428
0.151377
0.0787428
0.145342
0.093282
1.0135
0.0787429
0.0787428
0.0787428
0.0788212
0.0787936
0.0787749
0.0787428
0.173124
0.0788591
0.173934
5.25501
0.294369
0.0787159
0.0786826
0.078743
0.0787428
0.0799697
301.141
0.0787428
0.0787553
0.0787183
0.140888
0.240491
348.594
193.573
170.574
0.156523
0.103658
1648.48
0.0783762
0.178367
0.078678
0.0786001
0.0988969
0.441143
788.119
0.129685
0.0789409
0.159224
1983.46
0.0787428
0.0787428
0.0797391
0.0787753
0.0786529
0.0787144
0.0910337
2104.3
0.078743
48.0898
1193.41
0.0787428
0.0787428
0.0787428
0.0786834
0.0787428
0.0787428
0.0786905
0.0946388
4.85499
0.0795708
0.132536
139.995
0.0799771
0.444592
0.150695
0.0787642
0.0918351
0.0725289
0.0805757
0.0919346
0.0933805
1.16756
0.120926
0.0793218
66.7112
0.0787428
0.0787354
0.0689696
0.0787833
0.0788324
0.0787042
0.0787429
42.586
0.0787419
0.0787906
0.0787556
0.0787428
0.0787789
0.0788558
0.0788042
0.0793156
0.133508
0.0787428
0.0172913
0.0786771
0.0799445
0.0787509
0.0787427
16.1776
0.0792259
0.0789804
0.192765
0.0762868
0.0786578
0.0785981
0.0876129
0.174812
187.301
0.0814256
0.0787428
43.1679
0.0786941
0.0787402
0.0786835
0.239964
0.0786536
0.0787121
0.0786648
11.3791
0.0896098
0.0786133
0.0921488
0.0786757
0.13131
0.0947951
0.0787577
0.0759069
0.0787429
0.0787189
0.0788405
0.0787411
0.0787428
0.0786457
0.0932057
0.0787427
0.0787093
0.0811144
0.130794
11.0898
0.0787262
0.0803844
0.0949739
0.0809455
0.911281
0.180125
0.48568
0.0816722
0.0796776
0.0930857
0.0787017
0.0808255
0.0787408
26.254
0.199054
0.0926056
0.163486
0.112915
0.078734
0.078743
0.104558
0.0787428
0.0787483
0.119008
0.0903893
0.0786862
0.0786779
0.0802183
0.0787077
0.0786721
0.0786701
0.0787428
0.0786696
0.134441
0.0786913
0.0787372
0.0786405
0.0786698
0.0787428
0.06
0.148207
0.0948839
0.0786999
0.0910083
0.116812
0.078689
0.0787413
0.0787397
35.9398
0.165252
0.555654
0.0787819
494.716
0.0786692
0.078723
0.287497
0.194216
0.0787929
0.0791181
0.0787428
0.0786901
0.0786063
0.0786732
0.0787738
0.0787861
0.0786551
0.777349
0.116285
0.0786813
0.0786739
454.143
0.0786872
89.2899
0.078742
0.0904484
0.0787434
0.0787428
0.0787396
4.76491
0.529552
0.0787697
0.0787706
0.0787428
0.0787428
0.0554025
0.0787374
0.101244
0.0906454
51.2087
0.183254
0.0787428
102.312
0.0787428
0.0787108
0.0787428
0.0787428
0.0786637
0.0787552
0.138034
0.0786933
0.107532
0.0787428
0.0795739
0.078815
2265.89
0.0786492
0.0785735
1463.38
0.140826
0.0787424
0.0786802
0.0786689
0.0787558
0.556126
0.078703
0.140813
0.0789288
0.0787526
0.286306
34.9871
0.0787557
0.078227
0.0787289
0.0804595
0.0787428
0.0787428
342.205
0.0788523
0.0787428
0.0989016
0.0787428
0.0787009
0.0787594
0.078743
0.0793447
0.115238
0.0787121
0.0799043
0.105032
72.1198
1136.93
0.0787429
0.0787393
7.45574
0.0787414
0.0790813
1540.52
0.0787653
2682.56
2458.51
1556.65
0.148016
0.0787391
0.0787739
0.0787312
0.0787428
0.0787808
0.165862
0.0786366
0.176773
0.0787308
18.6338
0.183942
0.0787305
1443.66
0.0786406
0.0787523
0.0845332
6.64375
0.121199
0.0787428
16.2632
0.0786975
0.0787428
0.0787412
0.0788394
0.0788023
0.0787428
658.65
0.15957
0.0800079
0.0786712
0.0800254
0.0787428
184.13
0.0787428
29.0467
0.0787363
0.0787428
0.0786559
0.0924812
0.0787144
23.8801
519.468
0.0787548
0.0788
0.0787426
18.3781
0.0787933
0.0787427
0.0786714
59.6927
0.0786298
0.0787428
0.0787284
0.0468277
237.853
412.212
676.586
0.811745
226.545
0.0786568
0.0788353
0.0792415
3.75685
0.0788007
0.078765
11.1566
0.0846272
0.36966
0.0787286
0.0787039
0.156582
0.171042
550.771
0.0787428
0.0786805
132.415
0.694824
0.163535
60.3304
0.495554
0.0787428
0.0788637
51.6487
0.0786765
0.0787424
0.0916066
94.9749
0.0787431
690.001
0.151077
190.036
0.0786475
0.365998
28.4858
0.0786778
0.0787191
102.345
0.0794847
0.0786765
0.0787422
0.0787238
0.0806854
0.120563
0.0796557
1757.48
0.0786777
0.0787428
0.0787443
0.0785801
0.0880474
0.313805
0.0786902
0.0787144
0.0786989
2.04147
480.811
0.078641
0.0787798
0.0774264
0.0786582
0.0815207
0.0787428
0.0786749
588.952
0.0801096
460.312
0.0787428
10.9155
0.0786978
0.540179
0.693311
25.9061
0.0787281
0.0806445
1.39267
0.078645
0.0787422
0.0787213
0.0786704
0.0735292
0.0607533
2.67665
196.029
15.5899
235.319
0.0909691
390.538
0.0913525
0.095204
0.0787218
0.0786946
0.09119
0.0787252
0.0892433
0.0787233
0.0791843
0.0788235
0.0909844
0.0786668
0.0812092
0.0939368
0.0787324
0.0787428
0.0788064
0.0786554
0.0787876
0.0787428
0.209836
0.0786701
0.0786869
23.8544
0.0786015
181.406
261.537
0.160856
83.6694
0.163249
273.208
0.147918
0.0787428
0.0787428
0.0786409
0.181105
0.0787428
1190.14
0.0787006
0.0792086
0.0787417
0.0786655
0.0786303
0.0786477
0.0786464
0.0779897
0.0786687
0.140252
0.0786705
0.0787425
103.066
0.0799642
0.0786928
1243.32
0.192962
0.0787182
0.0786556
0.0787348
0.116197
171.163
88.1834
345.079
128.268
0.0786984
0.0787411
0.0787405
0.0789528
0.0786407
0.0787378
0.0900409
0.0787286
0.0787407
0.0787372
0.0793533
0.0786522
0.0786596
0.0787657
0.0787662
4.45264
5.76858
42.7649
0.422538
0.366607
0.0786732
0.0786402
122.417
0.0774348
0.0787352
84.399
0.0916656
0.0787248
0.0787042
0.106088
43.8064
0.745038
0.0786647
0.0787428
0.0929787
131.765
0.0787428
0.0787351
0.0787428
0.277722
12.2864
0.0798192
0.0963419
0.078711
0.078743
0.0787335
0.0786227
0.0787441
0.0787143
0.0786486
0.0787316
0.078663
0.0786246
0.078646
0.0787008
0.0786718
0.060411
0.078713
0.302787
0.154584
164.348
4.71922
0.162061
0.150939
0.22849
0.108184
0.0787428
0.0789175
0.0786796
0.0532349
0.30557
0.187681
0.0323647
173.174
960.439
1.11772
3.76884
0.0905668
0.0640643
0.0800622
357.445
0.430737
6.60794
0.0787524
0.0786202
0.0788173
0.0788441
0.169027
0.0777458
0.15859
2.87664
0.0795652
0.0788206
0.0787192
0.0787278
0.250601
0.0898453
0.0788391
0.078691
0.115286
0.0618179
0.078719
0.0787475
0.0787974
0.0787822
0.0787428
0.0786594
0.15808
0.0787311
0.0787428
0.0786428
48.0224
0.079598
0.0815467
0.0817278
0.0787516
2.14827
0.0786844
0.0789424
0.0786149
0.060282
235.221
16.6993
0.0787463
0.0997647
0.0787059
0.0786915
7.48622
0.0951502
2076.43
86.2128
0.121616
0.0787428
3.63943
0.0787237
0.0787428
0.0787428
0.0793255
0.0787428
1944.03
0.0787461
0.147541
1.17193
0.0787958
0.0787075
0.105068
0.0798386
0.140207
0.0787428
0.135675
0.0787428
0.0791089
3.2361
0.0786496
0.0786486
524.973
0.0787329
0.0787478
0.0787284
304.43
23.4336
0.0787211
0.84366
0.0787468
0.0787581
0.0787228
0.078743
0.0786227
0.0785972
0.0786424
0.0787428
0.0787163
0.0787788
0.191515
0.0787385
0.0589228
0.0789557
0.116775
0.092441
0.132
291.99
0.0787428
0.0787428
0.0786191
10.5164
93.529
0.0787428
0.0786291
145.803
39.5247
0.0597695
1149.19
0.542646
0.078631
0.182582
0.179634
0.0797365
0.0786406
0.0787667
0.0793806
0.137333
0.077985
56.8451
0.0787428
0.0786812
1971.33
100.302
0.0795746
49.8416
428.74
0.078776
0.0790939
0.0954242
0.0786648
700.678
0.0931953
0.09156
0.095447
0.0787313
0.078694
1806.1
0.132264
0.078744
0.0785909
0.0786657
0.0786783
0.078728
0.0787351
0.170204
1988.29
0.193224
0.0787428
0.0786394
0.0787428
0.0787639
0.0793696
0.0787438
0.0787902
0.0802867
0.332033
0.0786477
0.194209
0.172983
0.0787414
0.0790351
0.0787026
1141.2
0.0787428
0.0808456
0.156609
0.145027
0.0786985
0.0787428
0.0787383
0.0786461
0.0797362
374.508
0.080359
0.0788126
133.147
16.6924
0.0786999
197.168
0.0784883
0.0833573
0.0809795
0.0786722
0.0912366
0.0787139
0.0787396
0.0788387
0.0793376
0.0794483
0.0791797
0.095348
0.0796408
0.0990306
0.0794769
0.0587787
0.0800695
0.0787137
0.0796852
0.079
0.0976909
0.188526
1.79439
0.0812482
0.0809007
0.0910517
0.0786788
0.0966895
0.127203
1.58211
0.0947048
0.167378
0.0787159
0.101826
0.0867288
0.0787338
2375.11
396.993
0.240676
0.0941947
0.0917944
0.2415
0.0787592
0.0787318
0.0799865
45.2302
0.0792777
0.0787418
0.270298
0.0789142
0.0787832
0.0960509
2.1327
2589.35
0.078663
0.219277
0.0786886
0.217422
0.0788501
0.0786948
0.103625
0.078872
0.0978179
5.07416
0.0671573
0.0945299
275.169
0.0800599
0.450104
0.0787834
0.146614
3.80414
0.101118
0.0787667
0.0774692
75.2669
94.2157
4.03288
0.0786718
0.0788165
92.7679
0.0786652
0.0787537
8.80735
4.31214
0.0946632
0.0786749
0.0786086
0.0787278
0.145535
0.0787756
0.0786041
0.0787428
0.206144
0.0788961
0.0787428
0.0850227
0.100174
0.0786563
0.0786733
118.768
52.0015
0.0786119
0.0786882
0.114446
0.108769
0.0789414
0.248286
0.0905877
0.0991931
0.791433
0.0787065
0.069379
0.0903626
0.0787041
0.0787575
1.27135
0.0805695
441.062
0.0786658
335.337
0.422794
0.297478
0.212294
0.0521735
0.717373
1.45475
101.352
0.212486
26.909
0.15629
0.0787455
0.0787553
0.15562
0.078664
0.078702
0.168727
0.373291
0.078792
0.0791204
0.0786276
0.0786145
0.0928044
0.170073
0.0786432
9.55001
0.0787559
0.0787249
4.73268
0.135561
46.173
0.0796777
0.117333
192.827
0.897587
97.9509
0.0787431
0.0787593
0.0786868
0.0787337
0.0905927
0.0993133
0.0787486
0.0787111
37.7426
189.936
0.0954253
488.26
0.169579
509.082
0.0912047
163.943
0.078662
122.557
0.0912099
0.169419
0.0787623
0.0787428
1373.1
0.0787428
0.0787429
0.0787496
0.0787428
0.0787428
0.0902211
0.169894
0.058436
0.0787428
225.636
455.763
0.0900698
0.0787428
0.0787407
0.0786675
0.0787064
0.0184277
0.0786908
0.117424
0.119196
0.0787429
0.0787428
329.479
154.41
0.0916193
0.138634
0.0787766
0.0945734
0.149566
0.0787428
0.0787428
0.0787169
360.15
0.0787428
0.0787428
0.0787428
0.0787428
0.0918617
0.0787123
0.0797182
275.277
0.0844988
0.101054
0.0786952
0.159984
0.146428
314.683
0.0454043
0.0787306
1663.03
0.0787172
0.078743
0.078743
0.128201
0.0787426
0.0928295
0.143642
0.0787428
0.0787428
0.178766
0.0787431
0.0787428
837.557
0.14081
0.0800991
0.138733
0.0787273
0.0787428
0.0787428
0.0787428
0.0787428
1685.95
0.0787416
0.0981649
0.0914328
0.0787428
0.0787428
2020.23
0.0788247
0.175587
0.0910191
0.0787428
0.0787428
0.078743
0.0787426
0.0895923
0.162861
0.0787428
0.0923692
0.157427
0.0787428
0.0787428
0.0907282
0.0787424
0.0787429
0.0911032
0.0902678
0.0787428
0.078743
13.1288
0.175159
0.0919546
0.175939
0.144645
0.081355
0.138199
0.0787428
0.0787428
0.0787419
0.0787427
0.0787428
0.0799507
0.0204304
0.078743
0.090587
55.7425
0.0918553
0.0790853
0.0787407
8.17883
4.473
0.0907661
30.7051
0.0787428
127.108
0.0787365
0.0787318
0.0787428
0.0787426
0.187689
0.078743
0.145247
0.0787417
0.0787428
0.0787428
0.0787427
0.0919571
0.0895699
0.170945
0.111311
0.0787428
0.0787428
117.06
79.4234
0.0787428
0.0787241
10.789
0.103865
0.0801895
0.13807
0.0796332
0.0787431
0.0787428
0.0787428
0.0787428
0.0900091
0.131669
0.124366
0.0787429
0.0787427
0.0913348
0.0787324
0.174285
0.0786726
0.0787428
0.0786756
0.0924978
0.0904797
0.0922281
0.0787428
0.089378
0.147753
0.0786698
0.0786751
0.0783679
0.150809
0.0785909
0.0787428
0.078794
0.0787097
0.0787428
0.152618
0.0947486
0.078743
0.0787428
0.123034
0.0786499
0.0787428
0.204727
0.202313
0.0931044
0.0787428
0.0787428
0.0928149
0.0787428
0.0787428
0.0788468
0.0787428
0.0787428
0.0787428
0.0787428
0.0787428
4.65219
0.0787428
0.0787428
0.0809454
27.7208
0.150093
345.758
625.024
0.0788212
0.203568
26.2088
0.436744
0.0910575
164.386
0.0787407
0.156192
2.41044
2.20137
12.6189
0.0926452
98.0216
0.458521
0.0741742
19.1539
0.0788213
0.0787428
0.252616
0.0787218
5.06453
6.17856
2477.1
0.0527115
14.4083
3.03762
125.936
3.32481
858.92
0.078608
0.0787428
0.0787033
4479.23
0.232169
0.0786498
0.0915399
0.0787011
0.078743
0.0786836
0.154148
0.0794294
0.0921058
0.078785
0.0786477
0.0799391
0.0787816
0.196443
0.0902135
0.0789254
0.502578
2105.78
0.162521
0.0787374
0.165452
835.355
0.0961812
0.0874606
0.0787445
0.0786525
0.0890228
0.159793
0.0926211
0.0787528
0.0927504
1069.05
0.0787812
0.0787216
0.129534
0.0787414
2354.07
0.0899192
0.0787428
0.146142
0.0834293
0.078808
0.0912377
0.0926036
0.161687
481.22
3.03108
0.0787105
0.154689
0.0972609
0.0787107
0.0789636
0.0956358
0.208411
0.0787428
0.0786739
0.0787228
0.192236
0.0914384
0.149359
1.28368
4720.55
452.91
0.122455
0.170798
0.078664
0.0787818
0.0786975
19.9078
0.0786628
0.0918454
0.193666
0.0855364
481.581
79.1461
2000.51
0.0787428
337.025
345.413
0.0787617
0.0787516
0.0959772
0.079209
0.0786744
0.0786888
219.125
0.0788461
0.0794644
0.0787278
0.0794245
381.075
0.292508
0.0787026
0.0786916
0.162578
0.0787428
0.0786808
0.321393
0.165706
0.0900986
0.541498
0.0787183
0.0914016
38.5028
0.0786884
0.0786954
0.16286
0.0908701
0.11278
0.0786571
420.698
0.164431
0.155097
0.078248
6.48698
0.0801585
0.0786935
3153.15
0.090514
0.0787056
0.0787428
0.0800834
0.0788206
0.0799831
0.0787428
0.134323
0.0786996
0.0787232
0.0796641
0.0834256
0.0787624
0.0788796
0.0788283
0.0788033
186.067
0.0798309
0.520144
0.178793
0.0787428
0.161199
0.422388
0.296403
0.434329
0.32518
147.291
0.316045
177.634
0.0805414
0.0641211
0.0787428
0.174776
0.0787504
0.0787428
4.48069
0.0786571
130.114
941.834
0.0813484
0.0785937
0.0788044
0.0787805
3.00515
0.197382
0.078754
3.89209
0.0811078
0.0787428
1.15381
0.0786551
741.94
494.477
0.0788143
0.0787428
0.0788438
0.081723
0.0786554
56.0172
0.143542
36.5144
0.0787428
1304.48
0.0787961
0.346511
1813.24
353.17
1041.77
0.259208
0.0780587
0.0787428
165.132
207.436
0.0787428
0.0794792
1067.42
0.0787493
0.0787375
0.0787428
70.7504
0.159152
0.0787342
0.0787178
0.0787396
6.87336
0.390564
0.078714
0.078737
0.0787056
0.0977472
0.0786758
0.0794547
0.0794731
0.515382
983.365
0.710393
0.0792197
0.346908
3.33374
0.0786887
0.0786324
0.0867899
0.0945437
0.0791305
0.0789674
62.7068
0.559488
3.51183
0.0787432
782.333
0.0916639
0.0787428
1008.21
1.05257
0.828565
0.450494
0.156235
0.078743
0.0787428
0.0792143
0.0786658
0.0828911
0.0793813
96.563
0.0791215
0.319083
495.389
0.0787428
0.0815567
0.0786555
0.0787428
0.132512
0.0788154
4.70195
0.0787428
0.0787428
0.0852119
0.696455
255.284
0.714084
0.0787428
0.588551
0.078869
0.0787008
0.589846
0.201292
0.0786758
5.69356
5.07474
0.0787268
6.37118
1.81109
0.924438
0.109722
81.8582
0.433388
0.139663
0.130535
0.0796065
0.433344
0.0787428
0.0787236
290.456
0.699405
40.852
175.134
90.491
5.83127
0.0787428
0.079067
1232.08
0.253522
5.98697
0.513784
1.54371
4.28826
53.6727
45.7418
493.828
0.079933
79.4735
1021.53
0.0889898
742.197
57.8855
0.0450806
0.0912284
0.143905
0.0798982
90.568
0.093611
38.3453
699.591
0.0787727
209.554
0.0787428
0.0852685
0.438559
0.0825658
3.04402
1.72205
0.0863956
0.137423
0.0787522
0.0788739
0.151587
76.3623
0.0787428
0.401153
0.0785197
0.0788118
0.0845253
0.0905389
0.0786177
0.0787428
0.0787428
0.0785992
0.116092
0.0254186
0.0787465
0.0788271
0.0786378
834.987
0.0787428
0.0796106
0.0792357
0.0787428
13.3731
0.0453745
0.0790015
0.0788015
2017.71
11.2576
0.0824825
6.88253