/*--------------------------------*- C++ -*----------------------------------*\
| =========                 |                                                 |
| \\      /  F ield         | OpenFOAM: The Open Source CFD Toolbox           |
|  \\    /   O peration     | Version:  2312                                  |
|   \\  /    A nd           | Website:  www.openfoam.com                      |
|    \\/     M anipulation  |                                                 |
\*---------------------------------------------------------------------------*/
FoamFile
{
    version     2.0;
    format      ascii;
    arch        "LSB;label=32;scalar=64";
    class       volScalarField;
    location    "0.3";
    object      nut;
}
// * * * * * * * * * * * * * * * * * * * * * * * * * * * * * * * * * * * * * //

dimensions      [0 2 -1 0 0 0 0];

internalField   nonuniform List<scalar> 
32842
(
0.000579682
0.000581439
0.000579976
0.000579971
0.00089707
0.000579971
5.98074
2.77428
0.000579971
0.000579971
0.649047
0.605092
0.000579885
0.000579971
0.000579094
0.000579971
0.000579964
0.000579971
0.000579683
0.000886835
0.00093581
0.000916374
0.000872377
0.000579976
0.000864929
0.000579971
0.000579971
0.000771186
0.493562
0.000579591
1.06585
0.467112
9.26157
0.00057974
16.2637
4.62951
0.00102809
0.000580386
0.000579626
0.000579738
0.000579973
0.000932561
0.000579971
0.000579971
0.324683
0.00057969
1.99714
0.000579742
0.000919281
0.0511654
2.6902
0.000579971
0.582002
0.0917399
0.000579974
0.00545211
0.000579971
0.0890962
0.000579972
0.000579971
3.71272
0.55962
0.623182
0.000937468
0.000579761
5.28113
0.000579972
0.690531
0.432384
0.000582096
0.000761997
5.7976
0.491842
0.000579971
0.000579971
0.000576246
0.0994333
0.000579971
0.490923
1.03566
0.000892935
0.000579971
0.000579971
0.546225
0.767781
0.000579971
0.000579971
0.00440083
0.11146
0.000579971
0.000896796
0.000914969
7.61574
0.00057978
0.000579971
0.000579657
0.47715
0.000579302
0.709201
0.000579971
0.000579971
0.00117576
0.000583328
0.310102
0.487941
0.4473
0.94879
0.000585475
0.519737
0.000581048
0.000579971
0.000579971
1.11527
0.000579971
0.000582888
0.000924826
0.535565
0.507335
0.000581911
0.000579579
0.000579971
0.000579971
0.004137
0.000579975
0.000536284
0.485948
0.389572
0.000579725
7.06371
0.000579974
0.000579971
0.000596361
0.00138956
0.483826
0.00135814
0.000580058
0.000371324
0.0957292
0.000579657
0.000579911
0.523889
0.000579759
0.520796
0.488217
0.000579834
0.000579787
13.1337
0.000579751
0.000579971
0.000579967
0.000591917
0.166715
0.000827217
1.714
0.000580115
0.000579971
0.000579971
0.000579756
0.000579643
0.000579971
0.000579708
0.000579971
0.000867252
0.000579971
0.000580545
0.000579697
0.000579971
0.00057988
0.000580383
2.45126
1.98759
0.00115824
3.72979
0.000579971
0.000945309
1.02226
0.000579855
0.000583115
0.000579971
0.000579971
0.000812074
0.000579963
0.000579962
0.000579971
0.538898
0.000579959
0.49662
0.00057997
0.000579799
0.000579936
0.000579951
0.0885973
0.423865
0.000579971
0.440342
0.000579961
0.000579499
0.000579904
0.475761
0.000579971
0.000579678
0.000581176
0.0962344
1.54339
0.195905
0.00267815
0.000579911
0.000935817
0.443618
0.000579712
0.000579772
0.000597925
4.11973
4.02688
0.000579967
0.000579971
0.000579737
0.000580286
0.000579573
0.000580092
0.0746988
0.000579971
0.000579971
0.000579516
0.0011377
0.372984
0.000579974
0.459437
0.000579842
3.41845
0.000579971
0.000579971
0.000578502
0.000579971
3.77681
0.000886413
0.000897707
0.058655
0.00057995
0.558315
0.02632
0.000579965
0.0005796
2.04367
0.000579798
0.000580693
0.590044
0.000579971
0.000579971
0.000579974
0.000579971
0.000579971
0.000580034
0.47692
0.000580063
0.000579971
0.000579945
3.62695
0.000579967
0.000579733
0.000579971
0.000579971
0.000579971
0.000579973
0.363824
0.000579971
0.000579971
0.000579906
0.000580304
0.000579974
0.000579971
0.479996
0.000579971
0.368135
0.000579971
1.51437
0.000579644
0.00114918
0.000579971
0.000579671
0.000579971
12.0774
7.52363
0.000579971
0.000579666
0.00335898
6.52336
0.000579971
0.000935876
0.000579971
10.914
0.000579974
0.430144
6.27914
0.141943
0.000559971
0.426758
0.000579971
0.000579097
0.00086181
1.2589
0.000579975
0.00057997
0.000579977
0.000579971
0.000579971
0.000579971
0.000579971
0.000579525
0.563768
0.000579973
0.000579971
0.554926
0.000579971
0.000579971
0.000579969
0.000579744
2.30214
0.000579971
0.000579569
0.000579634
0.0556384
0.00057997
0.000685299
0.000579975
0.00057997
0.000579685
0.000579974
0.000579871
0.000579971
0.00057951
0.502347
0.000579971
0.000579971
0.000579894
0.000579971
0.936473
0.434141
0.000579971
0.000579961
0.00057979
0.000579523
0.000435641
0.000579971
0.561514
0.000579971
0.000579971
0.453392
0.646343
0.516051
0.000583997
7.93624
0.00057969
0.475487
0.000579971
0.000579584
0.000905209
0.00057971
0.000579971
0.000578538
0.000579971
0.000579971
0.000579898
1.15252
0.000579971
0.00057971
0.000579971
0.000579971
0.439758
0.000849372
0.000579971
8.63971
0.000579896
0.00125023
0.000579971
0.520956
0.00107741
0.000579971
0.000384303
0.00087221
0.00057959
0.570594
0.488107
0.000579651
0.000579953
0.000579975
0.000579971
0.000579971
0.000579971
0.00057988
0.000579966
0.000579729
0.000579968
0.000579971
0.000579893
0.000579971
0.000579827
0.000579551
0.000579629
0.000580152
0.142224
0.000579971
0.000579602
0.000581368
4.15194
0.000580313
0.000579572
0.00122613
0.000579971
0.000973585
0.38299
0.000579924
0.000579971
0.000579831
0.000579957
0.000579695
0.000579706
0.000579708
0.000579911
10.2753
0.000579822
0.491084
0.000579971
0.000945566
3.22812
0.000579971
0.000579748
0.000579971
0.000544107
0.000579973
0.000576709
0.000579971
0.000579971
0.500758
0.000891403
0.951259
0.000579821
11.6154
0.613885
0.529866
0.000932536
0.237117
0.000980523
0.539946
0.000579973
0.000579689
0.000719019
0.000579974
0.00084096
1.15532
0.000579976
0.000579997
0.000581638
9.77248
0.000821932
0.000579755
0.000579701
0.000909023
0.000580303
0.000581294
0.000579612
0.000958215
0.000579971
0.000579972
0.000579971
0.000579969
0.000579816
0.543535
0.000579851
0.000581957
0.000579971
0.000963725
0.000901981
0.000579971
0.000579791
0.546532
0.507792
0.000579971
0.000579974
0.000579971
0.000579971
0.000893898
0.000579708
0.0340492
0.545201
0.000579971
0.000579974
0.694931
0.00058527
0.000579971
0.00106172
0.000583015
0.000727348
0.000592281
0.515556
0.000941505
0.413998
0.547383
0.000503589
0.000579627
0.000930173
4.68875
0.00058042
0.5126
0.0010275
0.706352
0.000822706
0.000579971
4.30262
0.000997701
0.000579899
0.494038
0.000579656
0.481517
0.000579845
0.000579974
0.00111565
0.0012559
6.49702
2.29855
0.285786
2.09229
4.81305
4.15381
8.67523
0.529207
0.000579795
0.000579966
0.000579747
0.545931
0.163418
0.636927
0.681617
0.000579973
0.000579971
0.000829377
0.15903
0.000579977
2.748
0.0939026
0.000577916
1.17818
0.000406154
4.7513
0.000579963
0.000579971
0.000579967
0.520078
2.30039
0.000579971
0.000969247
0.00058009
0.152602
0.430397
0.000579771
0.000579719
0.000579969
0.000579971
0.0294776
1.1459
0.000579971
0.000579971
0.000580094
0.476875
0.07562
0.683819
0.000579642
0.000579971
0.000579971
1.29309
0.553983
0.415639
0.743707
0.424065
0.000579971
5.71358
0.425452
0.000579726
2.46091
0.000579971
0.000896126
0.000579971
0.00057315
0.000902306
0.000872808
0.000579971
0.000579815
0.000579846
0.000579648
0.552491
0.000943251
0.000579973
0.00057961
1.63456
0.000579971
0.00191281
1.19007
0.655977
0.000579458
0.000579971
0.826024
1.00504
4.78373
0.000579791
8.71815
0.786139
0.0967168
0.000585449
0.198825
0.000579973
0.000579971
0.000579975
0.000579971
0.000579971
0.144179
0.000911025
0.000579868
0.000579971
0.000579792
0.000579971
0.000578764
0.000579966
0.000579944
0.0937887
0.676046
0.000579692
0.000579971
0.0054962
0.112006
0.120949
0.000579769
0.118991
0.000579971
0.000579971
0.000581094
0.733139
0.493685
0.000579971
0.00090475
0.000579971
0.160554
0.000579971
0.000579971
0.000579973
0.000579977
0.196118
0.000579971
0.000579971
0.175721
0.0812351
0.00057218
0.000579972
0.000579971
0.434441
0.77226
0.000579971
0.498479
0.000884233
0.000579971
0.000579971
2.443
4.37467
0.000579971
0.697903
2.74152
0.000580028
0.208285
0.000579802
0.000579971
0.000976264
0.00110906
0.000624477
0.000580263
1.75013
0.000579971
0.458242
0.000579971
0.000579971
1.14589
3.00076
0.537541
0.0517107
0.000579971
0.000579972
0.000847988
0.000877068
1.50989
0.370979
3.26322
5.28797
0.000580117
0.00058306
5.97725
0.000579971
0.268381
0.000579856
0.00058049
0.611408
0.354828
0.000579619
0.000580618
0.000579971
0.000579958
0.000579806
0.000579971
0.00057974
0.000579971
0.000579971
0.566676
0.000579971
0.000580201
0.000579971
0.892014
0.000579971
0.00057981
0.00057965
0.422378
0.000579971
0.000579677
0.000575043
0.000579903
0.000580022
0.000579973
0.000590395
0.000579985
0.000579757
0.000579602
0.000579666
0.000153884
0.000579494
0.000995996
0.000706801
0.00096054
0.000579971
0.00104997
0.00134164
0.410955
0.000579703
0.0005796
0.00097979
0.0778712
0.000579971
0.376315
0.000879327
0.000579971
0.000579971
0.000622769
0.000580161
0.000580363
0.576819
0.000579971
0.00057997
0.000579738
0.000943663
0.477573
0.000579606
0.00105269
0.000579971
0.000846689
1.37625
4.11992
0.000852912
0.000579815
0.64576
0.00057997
0.000579971
0.000579929
0.000579514
0.000581346
0.000579719
0.126397
0.000579971
0.000583771
0.5824
0.0011057
0.000579747
0.000581649
0.000579971
0.641091
0.0013007
0.526034
0.000579716
0.424083
0.38229
0.000927258
0.000579974
0.000828238
0.000579932
0.000961347
0.000579781
0.000579963
0.000926947
2.32156
0.469305
0.000580017
10.8523
0.000579662
0.397319
0.000579967
0.000579971
0.000579967
0.000579971
0.000579635
0.000581047
0.000580046
0.00057997
0.000579971
0.000579938
0.000579961
0.000579659
0.478337
0.000582335
0.0889932
0.000579716
0.00057979
0.000906367
6.41494
0.000579985
0.000579703
0.000927604
0.000579971
0.000582605
0.000579978
0.0011579
0.643936
0.000579971
0.000579971
0.000580186
0.000579708
0.000579971
0.000580707
0.000579966
0.000579971
11.0821
0.000579858
50.7862
0.00057974
0.000579783
0.000580255
0.000580285
0.000896093
0.000579768
0.000579971
0.000579971
0.000579965
0.148929
0.000579971
0.000580256
0.518345
0.00057948
0.483073
0.00057997
16.8165
0.00057963
0.000579801
0.657889
6.19534
0.000578453
0.000579772
7.43448
0.00109832
0.000579898
0.000579667
0.000579971
0.000579693
0.000579707
0.475223
0.488702
0.49046
0.000579971
0.529073
0.00057996
0.000579143
0.000579202
0.00102076
0.000709297
0.000579968
0.000579646
0.000579971
0.000579736
0.000581456
0.000579971
0.000579815
0.000579442
0.000580885
0.00952081
0.0010535
0.000579971
0.0985263
0.175204
0.000579655
0.000330026
0.0596423
0.000579971
0.00057997
0.000579747
0.369503
0.000579971
0.000579971
0.461479
0.000925134
0.000579969
0.000579971
0.000579971
0.000579619
0.000715398
0.118274
0.000579971
0.000579849
0.409806
0.00057992
0.000579805
0.401419
0.000579576
0.000579971
0.000579975
0.000579936
0.472126
0.000580123
0.000579171
0.000579971
0.000579879
0.00106622
0.000579971
0.40931
0.000898912
9.65781
0.000579971
0.000579971
0.000579867
0.0005798
0.000579521
0.000579971
0.0585491
0.789671
0.000816514
0.00683446
0.000579971
0.000852932
0.000579971
0.000579971
0.000580057
0.000579971
0.000579414
0.000579971
0.000579971
0.000579894
0.000579696
0.000579971
0.280476
0.000579781
0.677538
0.000579915
0.563199
0.547179
0.000579971
0.000866856
0.550512
1.45927
4.24651
0.00663364
0.000579813
0.000579975
0.000579971
0.000579975
0.0931932
0.000579974
0.134856
0.0511842
0.0366684
0.0569804
0.000713353
7.6209
0.000579971
3.73407
4.03389
0.000579971
3.1997
0.000419051
0.000580032
0.000579971
0.000579969
18.3374
0.000579813
0.507074
0.000911738
14.1058
0.356398
0.573602
0.00125167
0.000579971
0.00057983
0.000579697
0.00057973
0.000582758
0.000579971
0.000579906
0.000579621
0.0634551
0.00100146
0.000579726
2.25925
0.000579771
0.00057971
0.00058051
0.000579681
1.38087
0.126244
0.000579682
0.000579584
0.000579737
0.500672
0.0647731
0.000579675
1.66151
0.523832
0.0507865
0.00058005
0.000580102
0.922034
0.56845
0.000580003
0.000579862
0.000579973
0.000580186
7.90931
0.000580269
0.371998
0.000580783
0.000579971
0.000579824
0.000579735
0.000645854
12.7089
0.000579833
0.000579664
34.5647
0.0862295
0.456621
0.000579662
4.39082
1.32399
0.000579826
0.000579973
0.000579718
0.662075
11.1498
0.00057992
0.000871172
2.23146
0.000579766
0.00075561
2.32448
0.000579883
0.00057997
0.00057996
0.000579968
12.8982
0.000580151
0.000580033
0.000282968
29.0442
0.000733072
0.000720033
4.76293
0.000579813
6.25288
0.356918
0.000579574
0.628339
0.295235
4.57034
0.188427
3.59557
3.89996
0.000579816
1.35814
0.461144
0.000241117
0.000579561
0.000580024
0.000579827
0.000579816
0.000579894
0.000580132
0.000580009
1.42548
0.000579971
0.000579971
0.00926865
0.000579971
0.000579562
2.44
0.0767621
0.00113603
0.000673992
0.000579725
0.181767
14.8168
0.461647
0.000580139
0.000579737
0.000580475
0.163737
5.12405
0.00113759
0.000573344
0.945615
0.00057972
1.92313
0.000584059
0.000579762
0.240436
0.00101033
0.000580127
0.0188477
0.000579905
0.00057998
0.111447
4.87037
5.10525
0.000579911
0.000579608
0.000579971
0.000579761
0.000584081
0.000580017
7.43723
0.000579971
0.000579971
5.81295
0.000579773
0.00057979
0.04569
0.000579971
4.82737
5.38869
0.000579971
0.00057948
5.50225
2.05268
4.68685
3.73472
0.000579613
9.19497
0.539241
0.00118103
7.16932
0.00059715
0.599906
0.000579831
0.000579869
0.000574273
0.385176
0.00140349
0.000579681
0.0849416
0.454048
12.0123
0.0698082
0.000579971
0.0434899
0.341697
2.14106
0.000579971
0.00057988
7.21766
0.000579721
0.000580688
0.182103
0.000586113
11.322
3.94524
0.00178799
0.000680759
0.000579832
0.000579683
5.90184
0.25306
0.000579972
0.000581869
0.000579971
0.19562
0.00057954
0.180361
7.61561
0.000582169
0.136819
2.0216
0.0178191
4.95392
5.5127
1.54839
0.000583665
0.547468
4.52722
0.104313
0.000811403
0.000579971
5.71511
0.000579832
0.000585105
0.00145718
0.000484157
0.472756
3.68465
0.00108888
0.573682
3.25954
0.000579806
6.52791
0.00123436
0.577448
1.38706
0.000579902
0.398378
0.228415
4.48201
0.00132965
0.000579972
0.576985
0.000579971
0.000920904
1.82716
0.000875492
0.000580903
0.46152
0.141834
0.000579757
9.49033
0.000579971
0.000579772
0.000579899
0.000579712
0.369344
0.000854723
0.000579971
0.104009
0.370007
0.000579965
0.00058162
35.8309
0.000579606
0.000579971
0.000580883
4.09297
4.51354
0.000579895
8.29322
0.000579971
2.51343
0.218843
0.000588949
0.474323
1.11223
0.0257643
0.00222082
0.000580951
0.342121
7.99785
0.196828
3.92575
14.296
0.000938879
3.43622
0.000579969
7.89632
0.000579552
0.455763
0.000580538
3.9749
0.000579794
0.000924596
0.000755945
0.570831
0.305673
0.00091538
0.000579804
6.65858
0.431375
0.000579772
0.000579971
1.83582
0.0610667
0.000579891
0.615076
0.000580024
4.19221
2.27169
0.618657
0.000580152
0.000579713
3.29709
1.39248
0.000891204
0.000580711
0.00110828
0.000579779
0.000580019
0.205696
0.000579971
0.487696
0.438358
0.000580388
0.000445962
0.000579971
1.6942
0.748246
0.000579971
0.00144332
1.40508
0.000579972
0.000579971
0.000580028
0.175451
0.000579969
0.000582707
0.000579606
0.00105127
0.000582524
0.000584317
0.000580811
0.000579971
0.000579881
0.000579739
0.000579967
0.000579881
0.000579827
0.000579708
0.000579721
3.91945
0.000581926
0.000579768
2.79839
0.000371619
0.000579822
0.000579961
0.000581803
0.000579971
0.000976264
3.49487
0.000579602
0.000580553
0.000582991
0.000605443
0.150497
0.204284
0.00122895
0.394897
5.97498
0.000579706
0.000579297
10.4171
6.56449
0.000902673
0.617009
0.00058093
0.000579604
0.614118
0.0009103
4.44936
0.00107263
0.00110627
0.000811251
0.000579646
5.02338
0.000579951
0.000579976
0.00114016
5.44688
3.40997
0.362354
5.00832
0.000875812
0.000849981
0.00364136
0.000578292
2.15616
4.75406
0.000863377
0.940615
0.000579839
2.4354
0.000579548
0.000642714
0.000580771
1.45077
0.000579971
5.95696
0.000581807
0.000579854
0.00112825
3.71392
0.110937
0.000572078
0.00057996
0.000579761
6.08746
0.000579835
0.000579971
0.374446
0.000579971
3.86058
0.000578516
0.000580623
0.000583221
0.000579812
0.000579784
0.000579971
2.81513
0.000579822
0.0344426
0.197892
0.000581154
0.000579876
0.000579939
0.000579922
0.000580285
0.000579984
4.57386
0.000579844
0.000579662
0.000579971
0.00114953
0.375761
0.000579324
0.00058059
0.000579971
3.0608
0.000579948
0.00057984
0.000579946
0.000579766
0.000579878
0.562388
0.000579906
0.000579814
0.000579844
2.10122
0.000585009
0.000580131
0.000579996
0.555929
0.000582862
0.000584604
0.0032587
0.000579512
0.000583413
0.000580128
3.82865
0.000579884
0.000579749
0.000522671
1.67103
7.12664
0.000579882
7.85875
7.14942
5.7124
0.000579586
6.78987
0.0132332
0.000851378
0.000580018
8.91957
7.17363
0.000579747
0.000579976
0.000579925
0.000579812
8.98992
8.09989
0.000579828
0.000579971
0.000554356
0.000580088
0.000582935
0.721184
0.000579873
2.87969
9.42863
0.000579972
0.000590861
0.171799
0.000588343
0.000553036
0.000579965
0.000580208
0.451296
0.000579909
4.37399
0.000579758
0.000584483
0.000579776
0.595621
0.0011311
0.00057987
0.000579963
0.000579971
0.000579961
0.000614665
0.000580161
5.36968
0.000579914
0.000266031
0.0133309
0.00150752
0.000579749
0.110132
0.623323
0.000579796
0.193774
0.0670209
0.00133105
0.000580419
0.00057996
0.532313
4.09232
0.13553
0.0414322
0.000579646
0.000579971
0.00141744
0.000579857
0.992599
0.000579935
0.000579817
0.000937357
0.0133625
0.00057969
0.000579971
1.53366
0.000579971
0.000579984
0.000579971
0.000579971
1.09262
0.558547
3.22097
0.000579971
0.000579773
0.00057964
6.06954
0.000586152
0.654056
1.9961
0.00110266
0.000579954
0.000579822
0.000579832
0.000579971
3.71256
2.88072
0.000579971
0.00057972
0.000579934
0.000579954
0.47072
0.000579971
0.52804
0.000579971
0.553799
0.00100067
2.0445
0.000579972
0.000579971
0.000579971
0.000581818
0.000581033
0.000580774
0.000579971
0.452051
0.00058283
0.311981
0.380522
1.05371
0.000579891
0.000579738
0.000579975
0.000579971
0.000586003
5.34603
0.000579971
0.000579961
0.000579877
0.585932
0.0665876
4.03099
12.2114
6.62032
0.498643
0.00155274
17.2569
0.000572858
0.442598
0.000578862
0.000576714
0.00127555
0.14268
0.691604
0.0030636
0.000580474
0.499165
0.870101
0.000579971
0.000579971
0.000582902
0.000580616
0.00057967
0.000579832
0.000917636
0.367056
0.000579974
3.88348
1.31557
0.000579971
0.000579971
0.000579971
0.000579771
0.000579971
0.000579971
0.000580173
0.00104211
2.86477
0.000581536
0.297531
0.817253
0.000583911
3.42193
0.535255
0.000579671
0.000914111
0.0194625
0.000589716
0.0009119
0.000956529
8.19322
0.657041
0.000581658
15.5742
0.000579971
0.000579949
0.000191294
0.000580021
0.000580168
0.000579795
0.000579971
2.75432
0.000579972
0.000580037
0.000579724
0.000579971
0.000580008
0.000580232
0.000580091
0.000581728
0.602775
0.000579971
1.07687
0.000579737
0.000602514
0.000581014
0.000579971
43.3587
0.000581353
0.00058063
0.393815
0.000249419
0.000579697
0.00057834
0.000414516
0.007097
0.279836
0.000594483
0.000579971
13.9501
0.000579773
0.000579903
0.000579737
0.0850112
0.00057965
0.00057985
0.000579735
1.70025
0.000845782
0.000579554
0.000921963
0.00057971
0.612805
0.00114712
0.000579946
0.000776181
0.000579973
0.0005799
0.000580195
0.000579966
0.000579971
0.000579647
0.000953737
0.00057997
0.000579814
0.000588795
0.612471
5.30796
0.000579936
0.000585231
0.00101684
0.000586735
0.0723362
0.436449
0.00913856
0.000593586
0.000582772
0.000943679
0.000579849
0.000581841
0.000579966
1.5664
0.381673
0.000957959
0.485384
0.706236
0.000579893
0.000579975
0.776315
0.000579971
0.000579942
0.0355051
0.000906929
0.000579745
0.000579777
0.000464246
0.000579846
0.000579713
0.000579695
0.000579971
0.000579718
0.614641
0.000579803
0.000579954
0.000579631
0.000579721
0.000579971
0.139089
0.208847
0.00109377
0.000579816
0.000884939
0.00204958
0.000579793
0.000579966
0.000579937
4.70043
0.481798
14.5569
0.000580021
4.0816
0.000579746
0.000579883
0.200566
0.404045
0.000580057
0.000581052
0.000579971
0.000579758
0.000579533
0.000579736
0.000580003
0.00058003
0.32547
0.0236839
0.684672
0.000579736
0.000579716
7.96187
0.000579767
5.03716
0.000579968
0.0008763
0.000579918
0.000579971
0.000579961
0.199883
0.103236
0.000573491
0.000574353
0.000579971
0.000579971
0.00017495
0.000579928
0.802644
0.000956428
4.35029
0.426678
0.000579971
5.14288
0.000579971
0.000579856
0.000579971
0.000579971
0.000579699
0.000579943
0.575073
0.000579823
0.00143226
0.000579971
0.00058596
0.000580122
18.2419
0.000579653
0.000579442
1.54077
0.56505
0.00057997
0.000579722
0.000579745
0.00057998
0.0299372
0.000579853
0.56328
0.000580441
0.000579968
0.00382418
5.32899
0.000579948
0.00054697
0.000579898
0.00059623
0.000579971
0.000579971
9.77307
0.000580215
0.000579971
0.00124199
0.000579971
0.000579811
0.000579971
0.000579974
0.000581686
0.00183044
0.00057988
0.000583605
8.74974
4.71784
1.31803
0.000579973
0.000579961
58.5604
0.000579967
0.000585348
2.47499
0.000579987
0.304164
0.295258
1.70342
0.528824
0.000579902
0.000579999
0.000579885
0.000579971
0.000580019
0.471001
0.000579623
0.454937
0.000579911
0.150525
0.00963538
0.000579883
1.85604
0.000579629
0.000579942
0.000702954
40.1078
0.661568
0.000579971
0.465708
0.000579765
0.000579971
0.000579966
0.000580753
0.000580074
0.000579971
4.35918
0.483997
0.000584019
0.000579729
0.000583971
0.000579971
9.53641
0.000579971
4.01475
0.000579952
0.000579971
0.00057647
0.000992206
0.000579861
8.18925
5.65887
0.000579937
0.000580092
0.00057997
2.26623
0.000580067
0.000579971
0.000579724
1.10243
0.00058001
0.000579971
0.000579954
0.0494391
4.48468
0.571558
4.49368
2.02941
11.1807
0.000579677
0.000580165
0.000581461
5.42951
0.000580106
0.000579985
3.60257
0.000745565
0.142054
0.000579872
0.000579811
0.51276
0.471286
4.90657
0.000579971
0.000579736
2.35309
31.6759
0.00628036
5.20344
0.0789508
0.000579971
0.000580382
6.84448
0.000579762
0.00057997
0.000986048
5.0314
0.000505223
2.62109
0.526342
4.8019
0.000579656
0.237905
3.83703
0.000579727
0.000579848
5.81865
0.000581001
0.000579732
0.000579969
0.000579867
0.000586288
0.00140628
0.000582332
1.91572
0.000579734
0.000579971
0.000579916
0.000576379
0.000805297
0.023298
0.000579767
0.000580046
0.00057984
2.06014
4.8872
0.000579646
0.000580025
0.000550989
0.000579684
0.000581643
0.000579971
0.000579767
4.52492
0.000584304
1.79521
0.000579971
4.1265
0.000579819
1.27626
1.39617
4.97653
0.000579927
0.000586224
2.41187
0.000579654
0.000579969
0.00057985
0.000579753
0.000233045
4.64471e-05
2.98999
4.67814
3.56641
5.99142
0.000887975
3.22759
0.000921402
0.00105862
0.000579909
0.000579828
0.000912125
0.000579899
0.000839635
0.000579913
0.000581402
0.000580151
0.000979998
0.000579738
0.000588049
0.000971444
0.00057994
0.000579971
0.000580094
0.000579686
0.00058004
0.000579971
0.366511
0.000579751
0.000579757
3.72063
0.000579518
5.8015
5.80808
0.493837
6.40098
0.485442
6.38633
0.536882
0.000579971
0.000579971
0.000579645
0.428806
0.000579971
1.30809
0.000579809
0.000581024
0.000579968
0.000579733
0.000579623
0.000579651
0.000579658
0.00056743
0.000579745
0.567825
0.000579728
0.00057997
11.0151
0.000583821
0.000579776
1.56748
0.410477
0.000579898
0.000579707
0.000579947
0.706255
1.67746
3.54803
9.57955
4.17837
0.000579812
0.000579966
0.000579964
0.00058053
0.000579634
0.000579956
0.000922487
0.000579929
0.000579965
0.000579954
0.000581816
0.00057966
0.00057968
0.000579956
0.000580738
2.11767
2.48243
4.73305
0.0227921
0.15323
0.00057974
0.00057963
4.85499
0.000553568
0.000579948
5.12576
0.000907016
0.000579858
0.000579811
0.00156912
0.741796
0.0614541
0.000579703
0.000579971
0.00102337
3.58719
0.000579971
0.000579903
0.000579971
0.0181353
8.98382
0.000583039
0.00104624
0.000579877
0.000579974
0.000579944
0.000579573
0.000579915
0.000579835
0.000579654
0.000579914
0.00057973
0.000579595
0.000579659
0.000579786
0.000579731
2.72414e-05
0.000579883
0.0192531
0.353189
5.43547
3.33165
0.49247
0.53351
0.339896
0.972361
0.000579971
0.000580437
0.000573632
0.0597822
0.249664
0.420668
0.0439677
3.83444
3.70199
3.15978
3.9435
0.000875699
0.000225905
0.000584071
3.36716
0.00354102
6.04467
0.00057997
0.000579605
0.000580128
0.000580189
0.448239
0.00614445
0.00703354
4.86291
0.00058273
0.000580132
0.000579862
0.000579902
1.07788
0.00081999
0.000580193
0.000579781
0.712247
0.000251475
0.0005799
0.000579932
0.000580108
0.000580024
0.000579971
0.000579702
0.496224
0.000579915
0.000579971
0.000579652
7.12535
0.000582571
0.0005512
0.000587325
0.000579943
1.93669
0.000579743
0.000584785
0.000579548
0.0255002
0.297142
0.556823
0.000579917
3.27837
0.000579806
0.000579766
7.04683
0.845407
1.47482
0.613248
0.644391
0.000579971
11.8692
0.000579915
0.000579971
0.000579971
0.000581673
0.000579971
0.142989
0.00057995
0.213803
3.69275
0.00058006
0.000579836
0.00153865
0.000583239
0.57644
0.000579971
0.00278798
0.000579971
0.000581062
5.30252
0.000579665
0.000579649
6.05474
0.000579912
0.000579959
0.00057987
10.6164
2.99612
0.00057988
4.72613
0.000579955
0.000579957
0.000579878
0.000579975
0.000579582
0.000579502
0.000579635
0.000579971
0.000579849
0.00058041
0.0110362
0.000579963
0.000197549
0.000580552
0.00217352
0.000929725
0.109946
6.43072
0.000579971
0.000579971
0.000579573
7.02586
17.7635
0.000579971
0.00057949
9.89925
7.16087
0.0448773
1.98714
2.68866
0.00057959
0.421011
0.440088
0.000582677
0.000579633
0.000579977
0.000582404
0.582387
0.00056591
9.67097
0.000579971
0.00057978
0.487695
26.4626
0.000582438
9.02094
10.436
0.000580033
0.000580964
0.00109476
0.000579692
5.82348
0.00101161
0.0010186
0.00113799
0.000579885
0.000579774
0.680676
0.00287017
0.000580705
0.000579489
0.0005797
0.000579768
0.000579927
0.000579948
0.463975
0.486214
0.242045
0.000579971
0.000579622
0.000579971
0.000579969
0.000581584
0.000579915
0.000581309
0.000584853
0.0518568
0.000579644
0.368226
0.462649
0.000579967
0.000580752
0.000579793
2.47532
0.000579971
0.000586117
0.247756
0.565808
0.000579368
0.000579971
0.000579898
0.000579672
0.00058299
2.0998
0.000585213
0.000580106
0.139148
4.82256
0.000579404
1.93648
0.00057548
0.000471679
0.000622277
0.000579711
0.899489
0.000579839
0.000579919
0.000580171
0.000581673
0.000582052
0.000581236
0.00124129
0.000582748
0.000854548
0.000581206
7.40062e-05
0.000584299
0.000579843
0.00058238
0.00058093
0.00120981
0.412686
0.461743
0.00058714
0.000601365
0.000947208
0.000579775
0.00110995
0.616048
5.06776
0.00111667
0.193516
0.000579829
0.00141473
0.0964533
0.000579944
1.29988
1.01
2.39596
0.00108464
0.000951742
0.311079
0.000579959
0.000578179
0.000376194
10.4975
0.000567712
0.000579913
0.04026
0.000582016
0.000580016
0.00102726
0.258807
8.7407
0.000579702
0.310957
0.000579753
0.30987
0.000580533
0.000579803
0.735795
0.000580266
0.00115078
8.13269
6.71584e-05
0.00103275
5.34634
0.000584136
0.0693659
0.000580028
0.558482
1.17214
0.000410305
0.000580882
0.000571246
0.871403
4.67809
2.77186
0.000580475
0.000580726
4.70796
0.000579723
0.000579954
4.33503
3.84159
0.00105451
0.000579724
0.000579533
0.000579869
0.552198
0.000580004
0.000579526
0.000579971
0.0989513
0.000579913
0.000579971
0.000608107
0.00134828
0.000579671
0.00057971
5.89813
4.63374
0.000579915
0.000579771
0.626077
0.0785724
0.00058054
0.259588
0.00105793
0.00131439
0.061225
0.000579807
0.0345221
0.000885936
0.000579832
0.000580414
2.64423
0.00798198
0.85397
0.000579696
16.144
0.127473
0.00558741
0.353848
8.87993e-07
3.14443
4.50446
6.0659
0.351786
4.16463
0.494763
0.000579927
0.000581779
0.514334
0.000579731
0.000579796
0.4713
0.133129
0.000580049
0.000581033
0.000579599
0.000579563
0.000970108
0.466914
0.000579645
0.11204
0.000579959
0.000579842
0.361469
0.586069
3.90329
0.000582863
0.711615
13.8549
4.71691
9.87562
0.000579976
0.000579973
0.000580209
0.000579889
0.000924855
0.0011395
0.000579943
0.000579823
4.61542
1.2347
0.00118376
14.4665
0.467911
13.9273
0.000968221
2.30869
0.000580282
4.40847
0.000921515
0.473238
0.00058121
0.000579971
3.21917
0.000579971
0.000579972
0.000579861
0.000579971
0.000579971
0.000864706
0.464599
0.00168786
0.000579971
9.78995
6.99405
0.000859446
0.000579971
0.000579965
0.000579724
0.000579839
0.0559356
0.000579789
0.644469
0.644837
0.000579973
0.000579971
6.92375
15.1591
0.900764
0.578913
0.00058099
0.00113696
0.538946
0.000579971
0.000579971
0.000579726
13.9669
0.000579971
0.000579971
0.000579971
0.000579971
0.000912868
0.000579977
0.000583052
10.628
0.000717193
0.0013506
0.000579155
0.492806
0.551195
5.419
9.91054e-05
0.000579935
0.913027
0.000579895
0.000579974
0.000579974
0.639354
0.00057997
0.000940125
0.57154
0.000579971
0.000579971
0.443663
0.000579975
0.000579971
1.6647
0.579666
0.00058434
0.586345
0.000579925
0.000579971
0.000579971
0.000579971
0.000579971
0.988512
0.000579967
0.809099
0.000899416
0.000579971
0.000579971
0.415864
0.000581069
0.425446
0.000893746
0.000579971
0.000579971
0.000579974
0.00057997
0.000849012
0.487604
0.000579971
0.000927505
0.500289
0.000579971
0.000579971
0.000879696
0.000579973
0.000579973
0.000888187
0.000868138
0.000579971
0.000579974
3.49169
0.447983
0.000917125
0.456645
0.555655
0.000589049
0.589744
0.000579971
0.000579971
0.000579968
0.00057997
0.000579971
0.000583011
0.112997
0.000579975
0.000876514
4.00147
0.000907402
0.000581175
0.000579965
1.08225
0.0465464
0.00091051
1.20582
0.000579971
0.1009
0.000579952
0.000579938
0.000579971
0.000579973
0.414633
0.000579975
0.555544
0.000579971
0.000579971
0.000579971
0.00057997
0.000918231
0.000847448
0.458908
0.730712
0.000579971
0.000579971
1.59728
2.81662
0.000579971
0.000579916
1.85891
0.78712
0.000421187
0.576827
0.000515315
0.000579976
0.000579971
0.000579971
0.000579971
0.000860279
0.611268
0.657836
0.000579972
0.000579971
0.000894575
0.000580908
0.4562
0.000579747
0.000579971
0.000579719
0.00092947
0.000873472
0.000920263
0.000579971
0.000841747
0.537976
0.000579748
0.000579716
0.000569217
0.533898
0.000579681
0.000579971
0.000580055
0.000579808
0.000579971
0.528388
0.000996755
0.000579974
0.000579971
0.676473
0.000579634
0.000579971
0.377226
0.380975
0.000951367
0.000579971
0.000579971
0.000942955
0.000579971
0.000579971
0.000580215
0.000579974
0.000579971
0.000579971
0.000579971