/*--------------------------------*- C++ -*----------------------------------*\
| =========                 |                                                 |
| \\      /  F ield         | OpenFOAM: The Open Source CFD Toolbox           |
|  \\    /   O peration     | Version:  2312                                  |
|   \\  /    A nd           | Website:  www.openfoam.com                      |
|    \\/     M anipulation  |                                                 |
\*---------------------------------------------------------------------------*/
FoamFile
{
    version     2.0;
    format      ascii;
    arch        "LSB;label=32;scalar=64";
    class       volScalarField;
    location    "0.3";
    object      p;
}
// * * * * * * * * * * * * * * * * * * * * * * * * * * * * * * * * * * * * * //

dimensions      [1 -1 -2 0 0 0 0];

internalField   nonuniform List<scalar> 
32842
(
101126
102148
101325
101325
101325
101325
131946
109838
101325
101325
109428
109843
101269
101325
101325
101243
101320
101325
101194
101325
101325
101321
101325
101325
101321
101325
101325
101325
105468
101074
103052
101325
109514
101171
109536
108900
101134
101004
101260
101166
101325
101325
101325
101325
101224
101140
100748
101170
101325
106613
109431
101325
101153
103409
101325
102197
101325
103911
101325
101325
109354
101104
101325
101325
101182
100864
101325
101259
101325
101846
101325
102679
101325
101325
101325
101158
104768
101325
101325
102425
101325
101325
101325
101325
101325
101325
101325
102305
107132
101325
101325
101325
101668
101325
101325
101114
101325
101325
101325
101325
101325
101133
102589
102676
101325
101141
108126
102040
101063
101631
101325
101325
101979
101325
102381
101325
101325
102423
102002
101063
101325
101325
107665
101325
101989
101325
101305
101161
103144
101325
101325
102110
101171
101149
101165
101325
102251
102538
101113
101275
101268
101184
101325
102248
101222
101204
109439
101179
101325
101322
102110
101394
101324
102209
101330
101325
101325
101182
101101
101325
101146
101325
101325
101325
101581
101144
101325
101265
101050
105703
101939
101108
101944
101325
101325
103022
101249
102140
101325
101325
101211
101320
101319
101325
101325
101317
101124
101324
101206
101302
101312
101877
101325
101325
101325
101317
101013
101278
101325
101325
101131
101227
102183
103032
103987
101343
101281
101325
101325
101148
101185
101406
102565
102601
101323
101325
101165
101194
101058
101365
101901
101325
101325
101020
101059
101343
101325
101325
101233
102618
101325
101325
101173
101325
102921
101325
101325
102539
101307
101325
107264
101315
101073
103107
101205
101147
101325
101325
101325
101323
101325
101325
101329
101325
101232
101325
101308
102588
101323
101168
101325
101325
101325
101325
101325
101325
101325
101283
100924
101325
101325
101325
101325
101325
101325
101904
101107
101284
101325
101121
101325
103356
102262
101325
101111
102092
102985
101325
101325
101325
104934
101325
101325
102970
107433
101827
101325
101325
101213
101325
120741
101325
101324
101325
101325
101325
101325
101325
101030
101325
101324
101325
101325
101325
101325
101324
101172
101622
101325
101059
101100
105795
101325
101325
101325
101324
101134
101325
101254
101325
101016
101325
101325
101325
101274
101325
101325
101325
101325
101319
101206
101023
102196
101325
101325
101325
101325
101325
101325
101325
101376
102801
101133
101325
101325
101223
101229
101149
101325
101099
101325
101325
101275
107526
101325
101325
101325
101325
102315
101325
101325
107279
101276
101336
101325
101131
101151
101325
102118
101325
101068
101325
100949
101112
101308
101325
101325
101325
101325
101265
101322
101164
101323
101325
101264
101325
101216
101043
101097
101323
102594
101325
101075
101863
102666
101436
101059
101099
101325
101243
101182
101294
101325
101229
101316
101137
101143
101146
101275
93400.7
101207
101342
101325
101293
104075
101325
101178
101325
101379
101325
101081
101325
101325
101124
101325
101325
101220
109393
103394
101325
101325
108151
101273
101325
101321
101135
101325
101325
101325
101914
101325
101337
101153
103637
101325
101180
101140
101325
101504
101004
101325
101325
101325
101325
101325
101265
101223
101325
101246
102234
101325
101325
101325
101325
101200
101325
101325
101325
101325
101325
101325
101325
101148
104087
101325
101325
101325
101325
102068
101325
101247
102398
101325
101463
101297
101325
101325
101325
102511
101096
101277
102468
101562
101325
101048
101325
101325
101325
102453
101000
101278
101325
101116
100967
101242
101325
101062
101296
103260
103337
104365
102517
102781
102740
103304
101119
101201
101322
101171
101325
103772
101325
102076
101308
101325
101325
108183
101325
99490.1
103177
101254
102726
101717
102587
101307
101325
101304
101325
102379
101325
101325
101216
106800
101306
101192
101152
101324
101325
107025
106909
101325
101325
101315
101307
107058
101325
101101
101325
101325
102687
101325
101299
104642
101325
101325
102963
101217
101158
102919
101325
101325
101325
102583
101325
101325
101325
101222
101240
101103
101325
101323
101325
101085
102723
101325
101392
102938
101337
101325
101325
103584
103140
108647
101203
109055
101325
105582
102430
105915
101325
101325
101325
101325
101325
106759
101325
101257
101325
101207
101325
101111
101322
101285
107030
101325
101129
101325
107143
105751
102505
101189
104987
101325
101325
101342
101386
101325
101325
101250
101325
103186
101325
101325
101325
101325
102115
101325
101325
102933
102792
101348
101325
101325
101325
101177
101325
101325
101325
101325
101325
102581
102875
101325
101325
102701
101297
102606
101213
101325
101193
101079
101385
101352
102755
101325
104228
101325
101325
102698
102687
102613
102516
101325
101325
101325
101325
102430
102188
102906
102061
101291
101985
102796
101325
106062
101245
101165
101143
102230
101325
101233
101325
101317
101323
101325
101162
101325
101325
101289
101325
101033
101325
101111
101325
101216
101110
101111
101325
101127
101155
101300
101356
101325
101638
101143
101184
101080
101120
101424
101325
101185
101325
101325
101325
101282
101173
101325
101145
101077
101284
104925
101325
101304
101306
101325
101325
101931
101196
101215
101259
101325
101325
101167
101267
101123
101081
101127
101325
101325
102262
102427
101091
101221
101325
101324
101325
101297
101019
101059
101315
104743
101325
101688
101325
101201
101177
101781
101325
101098
101015
101325
101143
101325
101328
101325
101325
101325
101297
101325
101198
101320
101325
106239
101376
101352
103280
101325
101216
101297
101325
101322
101325
101317
101334
101372
101324
101325
101299
101315
101117
101316
101245
102362
101153
101197
101293
102330
101331
101145
101325
101325
101940
101325
101205
101224
101325
101325
101100
101325
101325
101573
101322
101325
111302
101251
108205
101165
101201
101418
101481
101109
101185
101325
101325
101321
107069
101325
101237
101325
101325
101291
101325
100552
101097
101210
101325
102869
101196
101179
102846
101234
101277
101122
101325
101141
101150
101225
106687
101049
101325
101372
101318
101102
101061
101695
101325
101323
101106
101325
101153
101645
101325
101218
101104
101402
101503
101093
101325
101654
105486
101218
102032
106845
101325
101325
101171
101167
101325
101325
101152
101280
101324
101325
101325
101092
101090
101983
101325
101241
101325
101258
101169
110484
101056
101325
101325
101302
101309
101184
101179
101325
101268
101094
101325
101325
101325
103003
101325
101325
101257
101211
101023
101325
107825
102523
101325
101662
101325
101325
101325
101325
101272
101325
100958
101325
101325
101274
101136
101325
102335
101195
101325
101284
101325
101325
101325
101325
101325
102483
102717
106399
101214
101325
101325
101325
106687
101325
106868
106707
106646
106776
101325
103026
101325
102579
100559
101325
102604
102568
101353
101325
101324
107102
101213
101340
101325
107081
101325
101325
101117
101325
101225
101128
101162
101138
101325
101282
101087
102534
101216
101151
102634
101180
101146
101415
101129
102102
104114
101131
101065
101168
101301
101816
101122
102241
101142
102132
101349
101379
102415
101092
101341
101230
101325
101400
102586
101385
101312
101157
101325
101229
101159
101102
102178
101232
101117
112291
101669
101022
101118
102815
102182
101230
101325
101155
101299
102532
101291
101042
102532
101188
101446
102477
101259
101325
101272
101323
103671
101416
101304
102369
106439
101229
101316
102561
101213
102957
101300
101057
101294
101588
102862
102549
102127
102717
101220
108540
101313
101817
101049
101358
101230
101208
101267
101348
101335
109780
101325
101325
101508
101325
101325
100243
102184
101653
101883
101158
106525
101431
101325
101368
101167
101372
106218
103433
101064
101935
101601
101152
102174
102078
101187
107090
101325
101395
102032
101267
101328
106473
101592
102992
101264
101076
101325
101177
102182
102342
102007
101325
101325
103111
101190
101203
103828
101325
102875
103005
101325
100998
102995
102111
102113
102731
101085
100978
102140
101287
102986
102104
101325
101228
101258
101632
104897
101114
101121
105808
101304
101942
106075
101325
102276
107062
102459
101325
101265
101983
101154
101166
108084
102172
101395
102625
101364
101216
101230
101128
102732
101993
101324
101952
101325
108085
101364
106287
109421
102008
105932
106731
104932
102899
103120
112549
101966
101325
102913
102427
101325
101325
102983
101218
101918
101338
102172
101325
102511
101233
101192
109069
101208
103232
101161
101327
108296
101263
101858
105152
102984
101072
101325
101325
101325
101280
105123
101325
101214
101297
106787
101182
101708
101325
101194
101276
101136
103342
101325
101325
107109
101572
101307
101897
107165
101083
101325
101536
102818
102579
101270
103194
101325
108994
105784
102479
101325
106036
101956
101371
101850
106936
101858
102044
102122
101980
101325
102730
101324
103245
101325
101325
101175
101971
101202
101325
101243
103174
102245
101325
101209
103340
101246
101192
101325
108565
105204
101298
101305
101335
102323
102502
101302
101364
101147
102636
102653
101320
101455
101241
101196
101290
101825
101325
101090
101247
101322
102301
101325
102287
102719
101325
101259
102841
101325
101325
101352
107493
101324
102251
101118
101042
102095
101823
101712
101325
101258
101164
101322
101262
101204
101150
101156
102888
101642
101186
102672
102377
101219
101311
101896
101325
101346
102560
101080
101401
102134
101885
105759
103050
101085
101269
103425
101144
100878
103103
103534
101325
101134
101667
101083
103082
101324
103336
101297
101177
101325
101109
103361
101307
101325
101121
103392
104364
101325
103291
101325
101325
101733
101074
103077
102519
101325
101816
101238
102315
101044
102127
101088
102521
101325
102482
101303
101241
101138
102580
104653
102338
101318
101181
102550
101230
101325
102981
101325
102559
101049
101113
101253
101197
101187
101325
102087
101225
102321
101710
101908
101256
101278
101291
101108
101331
101918
101240
101119
101325
101209
101232
100896
101257
101325
103081
101318
101214
101288
101180
101261
101324
101273
101218
101227
103070
101231
101366
101338
101325
102036
102352
102623
101020
102432
101006
102019
101268
101170
101330
102600
102662
101306
102649
102645
102527
101067
102768
102344
101325
101333
103240
102696
101175
101325
101199
101215
103186
102554
101231
101325
101408
101380
102138
102996
101244
103080
103062
101325
102338
101351
102136
102451
101317
101412
101253
101278
102554
101182
102245
101191
101201
101101
101259
101322
101325
101319
102521
101191
102630
101288
102381
102544
101350
101178
104717
101325
101208
101965
102484
101209
101463
101318
100975
102532
106566
102509
101103
101325
101349
101247
102515
101301
101220
101275
101495
101132
101325
102813
101325
101330
101325
101325
105992
101088
102554
101325
101191
101104
102775
102519
99828.3
102307
101188
101311
101223
101228
101325
102454
102521
101325
101155
101297
101314
101200
101325
101172
101325
101296
101314
102593
101325
101325
101325
101117
101260
101186
101325
101325
101160
102498
102660
102485
101273
101158
101325
101325
102339
102638
101325
101315
101261
101320
101967
102573
102776
102924
101214
101352
106819
101376
101325
101233
101306
100958
101890
102332
101496
101500
101314
102405
101325
101325
102414
101272
101122
101228
101199
102313
101325
101969
102205
101325
101325
101325
101190
101325
101325
101178
101281
102183
102033
102182
101919
102030
102223
101325
101325
101325
102224
102241
101321
101325
102082
101113
101937
102121
101325
101311
102054
101325
101438
101198
101325
101960
101323
101300
101325
101325
101331
101444
101342
101800
101325
101325
102403
101167
101363
101186
101325
106946
101858
101533
101256
102202
101140
101173
102221
101837
102461
102212
101325
102054
101177
101271
101159
105774
101104
101243
101170
101968
101324
101045
101325
101144
101212
101061
101303
102243
101325
101279
101456
101322
101325
101106
101325
101325
101212
102107
101317
102520
101291
102170
101292
102176
104374
101325
102510
102213
102129
101325
101245
102233
101321
102028
101144
101238
101325
101298
101268
101325
101250
101325
101305
102405
101185
101168
101197
101878
101240
101149
101136
101325
101155
101325
101212
101314
101097
101158
101325
105069
106604
101101
101219
101325
101167
101206
101322
101301
101948
101325
108328
101344
102101
101176
101263
102193
101330
101356
101623
101325
101177
101031
101168
101343
101364
102009
102674
101018
101162
101150
103321
101187
102144
101323
101325
101285
101325
101319
103634
101629
101775
101778
101325
101325
101786
101295
101325
101120
102005
101346
101325
101895
101325
101247
101325
101325
101142
101302
101325
101227
101509
101325
102192
101369
109228
101111
100974
100897
101325
101324
101152
101174
101329
102240
101248
101194
101501
101321
102216
102554
101245
102120
101275
102327
101325
101325
103564
101443
101325
101295
101325
101215
101320
101325
102120
101467
101265
102215
101952
102568
97363.9
101325
101318
108305
101322
101279
99874.8
101329
99957.7
100043
99999.6
100871
101272
101336
101263
101325
101347
101123
101093
101257
101284
104589
102038
101260
100169
101092
101282
101441
106980
101325
101325
107480
101159
101325
101322
101262
101366
101325
100779
101255
102016
101163
101981
101325
101849
101325
102086
101312
101325
101452
101252
101250
103447
102777
101276
101235
101325
102050
101280
101325
101157
101952
101037
101325
101295
102461
102750
101756
102812
102436
102983
101127
101395
101755
102703
101382
101324
102165
101185
106338
101254
101213
101325
101325
102698
101325
101165
101805
108346
101639
101883
106924
101325
101281
102783
101186
101324
101068
102751
102040
102742
101295
102618
101114
106029
102082
101158
101239
101633
102153
101162
101324
101236
102140
102034
102210
107429
101165
101325
101283
101332
101325
106992
101180
101161
101238
102509
102667
101108
101271
101363
101129
102158
101325
101190
102839
102311
102233
101325
102121
101223
102228
102179
102949
101296
102082
102451
101113
101324
101230
101181
101870
102197
102182
102727
102125
102533
101312
102531
101226
101052
101284
101232
101262
101276
101318
101287
101371
101369
101142
101170
102071
101325
101305
101325
101375
101133
101330
101325
101325
101180
101179
102097
101022
101459
101262
101325
101731
101325
101082
101325
101325
101325
101108
101165
101325
102999
101212
101785
101323
101167
101094
101110
101116
101512
101175
101177
101162
101324
102119
102111
101189
101025
101257
101277
101151
101310
101325
101768
101872
102046
101763
101214
101322
101321
101545
101099
101315
101103
101298
101321
101314
101925
101113
101129
101297
101244
102642
102123
101953
102472
106249
101172
101096
101752
101394
101310
101814
101325
101246
101189
101259
106835
102526
101143
101325
101260
103180
101325
101276
101325
102176
102076
102574
101325
101263
101325
101307
101054
101273
101221
101110
101286
101166
101075
101116
101196
101162
101990
101267
102308
101806
103168
102559
101193
101171
102095
102327
101325
101451
101416
102112
101340
101457
102253
103143
102997
102225
102236
101318
102093
102494
102448
102509
102547
101322
101084
101336
101416
101032
102102
101180
101842
102214
101403
101249
101278
101957
101868
101348
101193
101200
102115
101279
101284
101415
101353
101325
101146
101324
101304
101325
101133
102110
102052
102157
102128
101301
102166
101160
101258
101038
102286
101925
101848
101268
102040
101210
101177
102162
101084
100395
103168
101217
101325
102045
101288
101325
101325
101926
101325
102615
101309
105312
102256
101364
101230
101153
101905
101211
101325
101498
101325
101524
102060
101120
101108
100976
101284
101315
101254
101413
102084
101263
102007
101312
101308
101259
101325
101065
101010
101097
101325
101239
101289
101930
101316
101860
101533
101160
101323
104735
101754
101325
101325
101058
101913
101963
101325
101084
100649
101871
102069
101393
102240
101068
101042
101224
102289
101098
101306
101793
101123
101302
101726
101325
101198
100572
109987
102061
101934
101656
101222
101635
101222
101135
101531
101128
101283
101088
101248
101180
102835
101307
101139
101002
101141
101190
101296
101310
101315
100794
106522
101325
101090
101325
101308
101599
101269
101232
102086
101827
101103
101417
101085
101322
101620
101202
102069
101325
102153
101909
101289
101187
101325
101267
101126
102084
102042
102112
101370
101925
102092
101234
111870
101206
102079
101206
101146
101140
101234
101287
101421
101987
102065
101725
101165
101973
101963
101835
101975
101712
101237
102318
101572
101006
101021
111885
102037
102333
101310
101195
101145
101422
101996
101349
101882
101218
101020
102147
101308
102106
102123
102194
101343
101272
101393
101314
101395
102207
101574
102167
101256
101703
101324
101328
101231
103745
110844
101144
101548
101172
101484
101417
101213
101214
101431
101117
102135
102033
101081
102005
102049
105501
101264
101134
102728
101940
101142
102190
103186
101933
102148
101036
101349
101926
101160
101310
102148
102227
101143
101157
101028
101251
101310
101334
101026
101325
102156
101506
101325
102347
101351
101115
101139
101885
101995
101034
101188
101302
102322
101539
101437
101161
101242
104190
101210
102317
101090
101231
101241
102414
102244
109155
101137
101997
103878
102218
101090
102350
102455
102458
102744
100966
102489
101021
101289
101005
101325
101166
101201
101365
102242
101317
101702
101076
101052
101057
101220
101106
102582
101314
101230
107971
101270
102553
101968
101240
100895
102157
102701
101325
101324
101135
101264
101215
101368
101304
101220
102531
102520
101344
101939
101361
101795
101189
102523
101040
102563
101128
101299
101190
101325
101191
101325
101325
101325
101325
101325
101325
101318
102592
101325
100428
100512
101325
101325
101321
101160
101237
108233
101203
101258
101397
101325
101325
101048
101027
101325
101321
101204
101241
101325
101325
101325
101277
101436
101325
101325
101325
101325
101325
101256
101813
101355
101325
101196
101293
101325
101325
102166
101898
101302
100770
101275
101325
101325
101214
101325
101325
101325
101325
101325
101325
101325
101325
101456
101325
101929
101325
101295
101325
101325
101325
101325
101005
101323
101184
101324
101325
101325
100568
101333
101265
101254
101325
101325
101325
101325
101325
101325
101325
101325
101325
101325
101325
101325
101324
101325
101325
101325
101325
101325
102137
101325
101325
101325
101325
102002
101325
101325
101325
101323
101325
101325
101937
102153
101325
101320
102011
101325
101643
101321
102161
102694
101282
102095
101325
102077
101313
101304
101325
101324
101191
101325
101325
101322
101325
101325
101325
101325
101325
101325
101325
101325
101325
101922
101966
101325
101289
102143
101325
102032
101325
101939
101325
101325
101325
101325
101325
101325
101325
101325
101325
101325
101084
101325
101176
101325
101148
101325
101325
101325
101325
101325
101325
101177
101142
101519
101269
100965
101325
101375
101197
101325
101325
101325
101325
101325
101325
101086
101325
101324
101322
101325
101325
101325
101325
101325
101325
101332
101325
101325
101325
101325
101325
102052
101325
101325
101916
102058
102017
103609
103243
101367
101322
102057
102014
101325
102074
101320
101267
102031
107592
102081
101279
102054
107717
102292
102035
101345
101325
101672
101231
101924
102004
101856
101979
101983
101984
102066
103612
102356
101056
101325
101248
107277
102007
101118
101322
101223
101325
101192
101325
101930
101325
101368
101122
102142
101341
102209
101243
101488
106297
101832
101277
101267
101237
101962
101307
101063
101264
101124
101060
101548
101259
101307
101310
101768
101234
101236
101313
101322
101812
101325
101325
101325
101224
101333
101217
101325
101325
102319
103481
101168
101350
101123
101159
101491
101106
101051
101325
101191
101247
101002
101126
101107
107221
109665
102044
101223
101161
101153
101344
101237
102888
101141
101082
102019
101300
102103
102160
102878
101325
102039
102015
101338
101214
101242
101369
101153
101219
103513
101379
102167
101242
101629
102412
101875
101213
101191
101285
101325
101194
101866
101276
101163
101857
101245
101212
103065
101177
101219
101203
101285
102242
101080
103281
101234
101222
101984
102590
102007
101196
102788
101325
101215
101325
101957
101361
102081
101325
101437
101197
101230
102034
102090
101309
101293
101315
101364
103566
101829
106648
101325
101325
101495
107439
102072
102074
101788
103326
102637
103460
101887
102339
101325
101844
101229
101325
104975
101123
103645
102752
102029
101019
101379
101342
102722
101830
101236
102146
102038
101325
102732
101126
102273
103437
101400
101325
101432
102341
101122
102604
101352
102513
101325
102250
101363
101431
102527
103041
102127
105520
101203
101325
102905
103779
101325
101920
102471
101283
101270
101325
102873
101230
101308
101277
101319
102369
102049
101231
101263
101203
101170
101187
102070
101931
102085
102250
101803
101920
102321
103859
101207
101087
101784
101325
101321
101511
102747
101964
102392
101325
103206
101325
101325
102916
102012
101805
102603
101325
101325
101325
101918
101141
101793
101940
102794
101743
101789
102700
101325
102332
101159
101325
101264
101364
106603
101325
101325
102135
102669
102420
107396
101325
101938
101393
101180
102466
107210
101159
102395
102663
101294
102547
101966
105485
101927
103907
102049
101362
102228
102127
102036
101325
101288
103303
101933
102494
102481
102557
102919
101325
101467
102244
102016
103361
102000
101983
102818
102554
101979
102771
102038
101905
101264
101321
101209
101539
101948
101314
101321
101955
101929
101323
102028
101785
101318
101789
101325
101837
102420
102044
102182
101833
101985
101323
101277
101478
101317
101837
101325
102232
101402
101352
101984
101325
101053
101325
101325
101059
101113
102095
101325
101385
101103
101893
101325
101921
101297
101325
101830
102163
101670
101287
101239
102008
101300
102625
101299
101200
101332
102856
101981
101146
101950
102000
101653
101316
101292
101769
102058
105282
102128
101956
101987
102058
100960
102308
101774
102177
101756
101991
101419
102957
101035
102089
101755
100101
101904
102473
100024
104591
102186
100602
100626
102259
102067
101957
101346
101151
105671
102438
102253
101471
101712
102140
102553
101973
100545
101325
102278
101167
101065
102157
102188
102148
105342
101399
102028
100056
102239
101980
101289
101926
101274
101323
101337
102164
102252
102131
102247
101731
100684
101942
101757
102020
101970
102102
101448
102084
101851
101726
101372
101420
100547
101576
102142
101602
102107
101294
102120
101219
102101
101880
102084
101474
102131
101325
100336
102611
101957
102241
101666
102029
102006
102180
102746
101464
101630
101992
101782
102135
101266
101180
102198
102205
101045
101393
101198
101206
101876
101176
101227
101103
101231
101571
101204
102309
102154
101510
102244
101480
101169
101284
104433
101132
101204
102107
102039
101998
100901
106189
101383
101223
102035
101995
102102
101177
100853
102133
101821
101553
101985
102091
102241
102723
102611
107905
101709
104020
101860
101325
102155
102044
102135
102242
102293
102378
101182
102939
102225
102181
102314
102293
101910
102117
101655
102511
101343
100719
102182
102009
101289
101456
102156
102518
102572
102069
102172
102223
101674
100475
101910
101592
101672
102706
102118
101564
102013
101889
102050
101318
101123
101478
102998
103080
102385
102935
101325
103235
102140
102116
102743
105739
102283
101623
102085
102567
101325
102131
103193
101997
101961
101717
101280
101904
101961
109638
101983
102219
101279
101891
101310
101210
101191
102023
102033
101937
102092
101284
101103
101934
102120
101971
102114
101360
101368
102100
102221
102085
101734
102122
102016
101319
101162
102310
101325
101323
103771
101003
102249
101085
101073
103499
101176
101626
103501
102097
102142
102086
102072
102570
102316
101237
101325
101584
102045
102109
101357
101960
102036
101956
101195
102008
102076
101313
101966
102031
102053
101574
102025
102109
102080
102522
102078
101697
102150
101988
101893
101354
101995
101865
102044
102520
101266
101607
101301
101319
102404
102016
101473
101805
102167
102117
100827
106343
101943
101910
102265
101680
101574
101976
102035
101742
101268
102357
101325
101934
101934
101254
101682
101983
102026
101887
101317
101528
101830
101137
102118
102146
101160
106481
101997
102170
101917
101223
106437
102859
102126
102135
101783
106648
102014
102080
102361
101254
101888
102094
102049
102025
101993
106625
105555
101501
101925
101119
101995
102265
102003
101981
101991
102077
101325
101902
102284
102114
102492
102013
101841
101947
102174
102154
101909
101994
101942
102174
101949
101311
102163
101879
101660
101667
102215
101082
102120
102600
102076
102087
102145
100883
106378
101200
101264
102184
101492
101112
101113
101871
101109
101913
102241
101347
101965
101288
102084
102066
101993
101203
101927
101966
102047
101100
101261
101301
101344
101136
102067
101263
102077
101916
101109
101440
106612
101281
101390
102147
101833
101883
101788
101779
102169
102041
101742
102811
102067
101946
102040
101845
103051
104604
101278
101662
101547
101800
101914
101325
101324
101240
101193
101874
101203
101226
102401
101525
101837
102013
104028
102539
102969
101623
101982
102726
103185
102141
101822
101286
102533
101301
101223
101267
102817
102123
101814
102409
101259
101997
102045
102059
102077
102557
102109
102625
102662
102486
102119
101325
101946
107410
101028
101468
101148
101146
102225
100955
101186
102130
101959
101156
101856
101717
101355
101421
101886
101527
101558
101325
102006
101771
102171
101996
101247
101184
101896
101144
101522
102181
101709
102124
102144
101325
102046
101490
101479
101624
102010
102191
102120
102050
101453
102141
102059
102165
102031
102090
102767
102004
100964
102023
101047
102045
101306
101203
101312
101212
101897
102544
102264
102082
102135
101389
101190
101771
105934
102082
104336
102092
102094
102525
101977
101108
102425
102813
102370
101950
101962
101838
100940
102123
101744
102009
101214
102020
101370
102268
101240
101747
102100
101246
102848
101404
101325
101132
101142
101881
102084
102461
102074
101263
102059
101178
102900
102250
102953
102576
102308
101089
101537
101145
102036
101083
102550
102083
101301
101325
101826
101325
102138
101224
102258
101145
102429
101183
102111
102129
101181
101261
102553
102437
101880
102581
102455
102714
102144
102867
101123
102511
101325
101325
102736
101241
102074
101325
102001
101113
101955
101257
101195
101427
101158
102251
101095
101113
102664
102771
102676
102737
101329
102374
101273
101212
102432
101585
103158
101513
101325
102525
102115
102420
102421
101325
102437
101526
103114
101102
101144
101325
102630
102533
101738
102419
101294
101755
101841
101398
101296
101132
101255
101043
102684
101201
101325
101257
101376
102780
102321
102592
102956
102505
101663
101988
101231
101319
102359
102647
102717
106669
101299
101268
101483
102409
102951
101481
101581
102418
101089
101209
102592
102890
102471
102877
101277
101310
101561
102353
103083
102442
101351
101332
102584
101079
102694
101473
101325
101240
102019
102578
102970
101498
101171
102720
102983
101235
101336
101159
105698
102371
101961
101032
101433
101163
101325
101325
101281
101318
101325
101218
101323
101159
101325
101181
101325
101470
101325
101325
101263
101905
101325
102074
101750
101325
101371
101325
101325
101325
101325
101325
101325
101914
101248
101309
101620
101300
101255
101306
101497
101245
101159
101191
101044
101090
101249
101179
101926
101777
101221
101841
101417
100950
101199
101319
101352
101323
101216
101317
101330
101979
101376
101301
101254
101380
100915
101977
101302
101134
101207
101145
102057
101002
101166
101201
101890
102000
101040
102028
101205
101165
101325
102016
102096
101248
101289
101050
101211
101325
101085
101319
101860
101288
101325
101325
102031
102040
102055
102198
101325
101325
102017
101217
101325
101325
101325
101378
101749
101325
101325
101325
101325
101325
101325
101325
101204
101290
101325
101325
101325
101493
101325
101433
101325
101833
101325
101325
101325
101304
101325
101325
101325
101325
101325
101316
101905
101325
101325
101998
101871
101325
101325
101325
101325
101485
101163
101325
102174
103413
101607
101325
101325
102028
101308
101745
101325
101257
101325
101325
101238
101395
101451
101361
101327
101325
101325
101266
101325
101325
101325
101250
101347
101325
101325
101325
101325
101325
101325
101325
101570
101220
101325
101207
101325
102147
102194
101586
101325
101325
101965
101325
101325
102053
101608
101325
103262
101325
101770
102229
101325
101247
101221
101233
101319
101309
101325
101325
101145
101325
101325
101325
102382
101325
102537
101325
101325
101325
101404
101592
101349
103137
101149
101263
101232
101319
101379
102754
102242
101923
101130
101394
101325
101325
101891
102324
101140
101831
101325
101200
102250
101145
101306
101295
101199
101293
101358
101149
102020
101325
102319
101231
101325
101325
101633
101968
101325
101322
101351
101325
101174
101325
101313
101470
101091
101223
101321
101325
101325
101209
101203
101323
101267
101483
101305
101254
101198
101277
101220
101272
101437
101315
101321
101223
101080
101283
103197
101105
101155
101271
101325
101329
101290
101252
101325
101301
101209
101275
102413
101338
101531
102452
101101
101315
102207
101428