/*--------------------------------*- C++ -*----------------------------------*\
| =========                 |                                                 |
| \\      /  F ield         | OpenFOAM: The Open Source CFD Toolbox           |
|  \\    /   O peration     | Version:  2312                                  |
|   \\  /    A nd           | Website:  www.openfoam.com                      |
|    \\/     M anipulation  |                                                 |
\*---------------------------------------------------------------------------*/
FoamFile
{
    version     2.0;
    format      ascii;
    arch        "LSB;label=32;scalar=64";
    class       surfaceScalarField;
    location    "0.3";
    object      phi;
}
// * * * * * * * * * * * * * * * * * * * * * * * * * * * * * * * * * * * * * //

dimensions      [1 0 -1 0 0 0 0];

oriented        oriented;

internalField   nonuniform List<scalar> 
62453
(
27.3624
-25.1359
-22.58
7.59305
2.56272
-0.5049
-7.4427
1.69054
7.46754e-09
-6.09825e-10
-2.40802e-09
2.48121e-09
-1.15132e-08
6.1947e-09
-1.03202e-09
5.59052e-08
-4.06191e-11
-2.85371e-11
-1.38983e-11
-3.40197e-11
-2.47911e-05
1.29438e-05
2.74559e-06
3.37937e-05
158.758
198.574
-123.119
-119.164
22.1779
-39.4231
-38.6903
-6.06066e-11
-5.07855e-11
-1.08042e-10
4.13336e-11
-0.000915288
-0.000534779
0.00506078
-0.00105109
-35.1225
-94.581
1.25477
28.6847
-23.3007
-7.62375
7.15015
2.68646
-7.05257
5.85025
2.80417e-12
-3.20711e-11
1.86022e-11
2.24623e-11
1.98032e-11
1.04361e-11
-1.59162e-12
-4.71162
-11.6024
17.9579
-0.758251
-0.323128
0.538565
0.297225
0.081092
0.00011654
-2.46085e-05
0.000275034
-8.9614e-05
4.17865
-10.4406
-1.2046
1.24678
2.42107e-11
-3.08877e-11
-7.8816e-11
7.15992e-11
-2.34138e-11
-6.07497e-11
-7.50193e-11
7.45398e-11
0.724937
-0.201004
0.566446
-0.464624
-6.42803e-11
-2.90734e-11
-4.7055e-11
1.84724e-11
-2.75958e-11
2.3842e-11
-1.08996
1.98095
-0.372614
0.190219
2.10673e-07
-2.81704e-08
-4.21939e-08
1.14188e-08
-5.01045e-06
-5.55679e-07
-1.8302e-06
3.78245e-11
99.7088
32.1244
-132.292
51.6955
10.0851
-38.514
-10.8873
12.3547
9.42316
-20.3199
1.52087e-11
3.15965e-11
-3.46954e-11
2.99588
50.9353
64.0914
-118.51
-22.1662
-4.60495
1.12321
22.3822
27.1526
-56.5312
36.1352
-7.47478
-2.80151
9.26103
0.143305
-7.07865
-3.05435
1.22016
-41.1774
40.2571
11.6072
23.6327
-16.4267
-5.94515
-10.3059
17.8212
-20.4893
12.1691
4.81392e-08
-6.45606e-08
1.31169e-06
-3.29742e-07
-1.21699e-10
-1.41496e-10
6.50193e-10
7.59422e-11
4.17473e-12
1.60003e-10
-1.28279e-10
-2.53446e-11
-1.25679e-10
6.7883e-11
-3.28306e-10
8.43854e-11
-4.58736
-10.2605
15.0796
30.5036
-29.3902
5.44051
3.35762
38.777
26.7994
-25.629
-38.9782
7.76493
-24.4634
18.2907
-2.3838
-4.7608e-11
2.76462e-12
3.0096e-11
1.87027e-10
3.12465
86.6984
1.87841
-89.0608
34.7265
-27.7244
42.3804
-1.2429e-11
-1.05914e-11
-6.30841e-11
-8.73352e-12
-5.26753
29.4042
-23.5721
89.5444
-45.2554
-55.3482
27.6514
-1.5987e-10
2.23387e-10
1.89619e-10
-1.73443e-10
-1.0568
1.90421
-0.665264
-0.193156
3.06782e-08
2.16233e-08
7.1318e-09
-1.61423e-08
-56.9546
23.6529
75.0692
-38.9489
9.6322e-11
2.53714e-10
-2.16061e-10
2.49446e-12
-3.20431e-11
3.38836e-10
0.673877
-10.5189
8.86973
6.11089e-11
5.3668e-11
4.42358e-11
1.42774e-10
7.50053e-11
-1.4321e-10
-28.0772
-35.0855
16.3366
53.0729
-141.338
-5.00655
33.387
111.622
-6.11973e-12
4.67223e-11
-1.55494e-10
-2.03312
13.5997
-19.808
1.21603e-11
-8.32718e-12
1.66435e-10
0.873727
7.83519
-7.06439
-4.48449
1.35483e-11
-7.30622e-11
-3.00425e-11
-1.87046e-11
-6.31952
14.7049
4.12273
-13.3412
-4.4943e-11
-3.35301e-11
-3.16399e-11
7.3644e-12
-4.45994e-12
-3.13086e-11
6.8437e-12
-9.44341e-10
-3.61688e-10
-4.11357e-10
7.68614e-09
-41.9927
18.726
5.17991
37.8816
-167.315
67.7986
99.5073
3.49485e-09
-6.60572e-10
-3.97289e-10
5.23367e-10
0.0156405
-0.00559788
-0.000686215
-0.569305
-0.470511
-0.233762
1.36983
4.09122e-10
5.49851e-10
-3.96085e-11
-2.9118e-10
-8.92482e-10
6.39412e-10
1.29289e-08
-3.59867e-09
7.82316e-09
-7.34573e-11
-3.92318e-11
-2.80731e-11
7.80138e-11
-2.19686e-11
8.65688e-11
2.47201e-11
3.09012e-10
-9.87631e-11
3.30126e-11
-4.9838e-10
-0.793657
0.522816
-1.30773
1.4839
-65.8176
-7.58834
66.7263
9.5635e-06
-8.4074e-05
-0.000129997
0.000575106
-0.00549337
-0.0163788
0.00147898
0.0437961
1.97964e-09
1.21796e-07
-3.23574e-08
8.54242e-10
5.98537
-0.019829
4.55531
-9.84187
1.16894e-10
-3.5221e-11
7.05687e-08
-3.90382e-08
1.49876e-07
0.601629
9.94296
-14.5211
6.85652
0.0225117
-0.0114098
8.93922e-12
1.84614e-11
-6.3407e-12
-7.29381e-11
9.85322e-12
5.14214e-11
9.55873e-12
-8.63219e-12
-5.07005e-11
7.70964e-12
2.19821e-11
-4.84458e-11
-5.71749e-13
-6.2329e-12
-4.39962
-8.46423
1.27622
5.03688
-0.145791
-0.364707
0.165815
1.41195
-0.639955
11.9707
-10.2649
0.0706755
-0.0136804
-5.27353
11.5964
9.0071
96.7672
-53.8339
-49.2619
-1.0709
10.9014
-16.4718
1.30664
22.578
-8.07539
-9.97345
-12.3303
2.95111
1.97216
3.49903
8.17929e-05
-3.85864e-05
-0.000240127
0.00144322
0.00495738
-0.00408789
-0.00531641
0.0143241
185.08
-47.768
78.3418
-214.687
0.00182511
-0.000160215
-0.000249269
-0.248041
0.988233
-0.533543
-0.118924
8.89794e-11
-7.29486e-11
-8.57074e-11
6.05923e-11
1.4784e-11
-1.31524e-11
2.84972e-11
-8.44827
-10.7989
17.4586
2.18738
-7.60941
1.04422
-2.87685
24.0535
-9.43748
7.60147
-23.3194
0.000814821
0.0142008
0.00369416
-0.00765154
-0.000229765
-0.000986107
0.00223109
0.0016917
-102.542
46.7207
-37.7326
90.7992
-2.72034e-08
5.00077e-08
-4.47692e-08
1.80649e-07
-0.232029
-2.61285
1.2291
0.391868
1.59686e-06
-2.76346e-07
-4.6145e-07
-3.7192
3.10678
-4.17476
-29.9272
20.0455
3.08567
-4.66226
8.43495
1.84778
-0.298801
-9.47398
4.07965e-09
2.38224e-08
-1.60377e-08
2.16326e-08
-7.7051e-09
2.06795e-09
-2.614e-09
0.961238
0.167898
3.74465
-1.51789
-19.9718
9.13888
-3.59452
13.3573
-10.0141
6.51472
5.27321
11.9998
-20.2547
-26.7427
35.3738
-16.8097
6.49029
-7.30484
35.8952
-2.35299
-0.278284
-0.606126
4.48211
0.914628
-0.805159
0.0824381
33.6365
-13.2149
25.554
-37.5991
2.35649
-5.05977
1.18423
4.02992
-4.66388
7.03006
1.92236
17.6991
10.3144
-29.6807
-3.8279
-1.17951e-10
2.41807e-11
7.36635e-11
-1.38869
1.24361
-1.6806
2.19992
-12.3678
32.0859
-11.5624
-14.1137
16.0139
-7.17156
-16.8142
12.6582
-151.572
108.947
-24.4488
80.2514
27.3537
-15.0766
-18.7406
9.83547
2.17109e-11
-5.32721e-11
-3.93478e-11
3.63395e-11
0.193579
0.909671
-0.267362
-0.131898
-0.733451
1.17152
0.538745
-1.91199
-10.6883
6.77313
3.13881
0.130297
0.196239
-0.0613779
-0.136582
1.87558
8.90475
-9.26272
-1.34514
-12.8301
10.0954
7.95096
-7.4896
2.86566e-11
-6.28878e-11
8.4503e-11
-6.68327e-11
-2.3691e-09
1.74505e-08
8.22918e-10
-3.72044e-09
-17.1767
1.29654
-19.7203
28.3982
-10.3776
-15.2414
25.803
17.144
0.000325616
-0.000221816
0.000618733
-0.000144444
-30.3941
11.8276
18.2712
-4.33269e-11
-8.40467e-10
1.90099e-09
1.80952e-09
-1.05454e-10
2.9521e-13
5.46797e-11
3.47152e-11
-3.80304e-10
1.26817e-10
2.09095e-09
-3.39585e-10
1.53308
9.08997
-24.7652
5.64486
44.0682
2.41587
-25.3775
-18.0282
2.18893e-09
8.85073e-10
-7.8471e-11
-8.12536e-10
-15.0406
3.73062
20.2264
3.12396
16.6133
-12.8124
-3.28373
37.5268
200.837
-47.4345
-115.598
-0.871796
-3.69067
0.35548
4.3328
-8.07239
13.317
-33.561
21.0966
0.0432649
1.49662
0.43076
-1.85798
4.84824e-11
-1.15343e-10
1.46267e-10
-9.42157e-11
-5.331e-11
7.68503e-11
2.22875e-10
5.30805e-12
0.80546
0.216059
-0.208943
-0.788812
-2.86529
-13.9323
19.4396
5.82049
0.215587
-1.25905
1.32333
-1.69818
-3.86212e-11
-2.30575e-11
-1.46129e-11
-7.36963e-12
0.000211547
-0.000630799
0.00454066
-0.00130995
2.92399
2.87329
2.97715
-9.05443
1.1665
0.54396
-0.849844
-0.37956
1.3048
-0.790748
0.755146
-0.270012
6.40431e-08
-1.211e-07
-1.48536e-07
9.05223e-07
-4.07023e-11
5.48634e-11
7.72077e-11
2.01059
-1.09698
-0.13791
0.343968
0.549697
-16.8061
19.0295
-0.0430332
-0.0115567
0.0527326
0.0768082
-7.18205
-18.0363
29.4479
-7.86982
-3.88834
5.22463
2.55785
-0.741897
-0.708862
-1.28867
0.401921
-3.40904
-1.93383
3.07837
1.43278e-10
-8.84024e-11
2.56219e-10
-4.18384e-10
-2.09656e-10
-1.39264e-11
1.80741e-09
-4.0983e-11
4.84426e-11
-7.92856e-11
7.68049
10.2595
-9.34587
-8.43662
-17.2731
17.4793
-15.2852
18.035
1.77619
10.0472
-11.1457
1.51889e-07
3.8209e-08
-5.16665e-08
-0.00778155
0.00121098
-0.00686538
0.0336514
9.30505
18.6174
-12.857
-0.905771
43.0151
-23.7064
-14.4733
-2.75136
1.52662
1.29158
97.3104
-60.3045
-115.151
53.244
-77.8166
-48.8607
75.2689
6.11057
-10.2365
10.1463
-11.6878
5.35811
32.2928
-21.1827
-17.1084
6.28007e-09
-1.59727e-09
8.71989e-09
-2.21412e-09
-4.19424e-09
2.24948e-08
-13.7669
-25.6902
-11.9199
34.621
12.9815
4.76556
-34.8636
9.97804
15.2589
-3.08155
-0.890886
-11.9406
-0.449268
0.549368
-1.4029
1.37586
-1.12593
-0.118257
0.873429
0.103025
-0.272472
0.0290236
0.538532
-9.14376e-11
1.26204e-11
4.36225e-12
7.29594e-11
10.8904
29.2432
-4.45904
-46.504
-17.3736
-4.71392
26.5783
23.9698
-0.532321
12.9469
-35.8311
-17.6968
10.004
10.5052
2.06543
-5.06526
-11.1841
18.8406
-4.79449e-08
-2.99329e-08
-1.38819e-07
7.99717e-07
0.00011194
-0.000182033
0.000214394
0.000180668
-11.6873
22.236
9.58913
-18.9995
-9.01729
-22.6511
30.1848
4.22419
12.9935
-21.8598
-3.17384e-11
-9.61442e-11
9.32558e-11
2.88742e-11
-6.03121e-11
4.34776e-11
-27.8411
10.5625
25.0865
-5.59585
-3.99966
1.3168
7.31117
-4.44167
0.00124444
5.18481e-05
0.0001832
-0.000567458
-0.00205783
0.00781465
-0.00264938
0.00215314
18.0177
-22.9745
-13.1955
12.0196
7.37148e-08
-3.84919e-08
9.88248e-08
-2.54712e-08
-1.95414
0.759575
1.13017
0.0875258
-1.23146e-07
4.23227e-05
-1.28469e-05
-1.16358e-06
-5.91359e-06
-1.73947e-05
5.84466e-05
2.8558
-0.190512
-3.43467
1.26624
11.9679
-13.9809
6.36122
-1.70064e-10
-1.08983e-10
6.06455e-11
116.85
-84.66
126.578
-163.637
4.39676
0.0221852
-0.552935
-1.34935
-57.2324
23.9404
-71.6245
38.5758
-42.7056
77.3265
-31.855
1.9872
4.06997
27.024
-7.26363
-4.43665
1.01514
11.4343
1.91191e-10
-1.9509e-10
-9.9473e-11
6.50564e-06
1.0667e-05
-3.01157e-06
-2.84312e-07
1.21047e-06
7.26656e-07
-5.1209e-07
-2.51277e-07
-0.213814
0.482085
0.149152
-0.110359
-7.68976e-12
-2.66623e-11
-2.17952e-11
-3.75525e-11
4.95793e-06
3.73867e-07
-1.14398e-06
-31.3495
26.8869
16.5868
-7.70082
0.0131346
-0.00272431
-0.00108211
-11.0814
-2.60068
-5.63338
-2.14589
-4.88917e-07
-9.02282e-07
1.67517e-05
8.931
-2.42931
-3.03331
0.474074
0.755507
-1.50068
-0.242498
-0.250796
0.305044
0.842575
-0.283058
22.8563
-5.02447
8.58001
-25.3787
2.65934e-05
4.32699e-08
6.30436e-05
-2.55321e-05
6.72589e-12
3.52107e-12
5.05917e-11
-1.32912e-10
-9.85359e-11
-4.23326e-11
-2.81962e-11
3.9625e-11
3.63908e-08
8.95855e-07
-4.47093e-07
4.71565e-07
-2.00365e-06
3.98747e-06
2.63594e-06
1.54257e-05
-3.49226e-06
6.50871e-06
-4.46383e-06
0.00119258
-0.000577135
-0.000190656
0.00110413
4.33961
0.894733
4.41565
1.96787
-1.08628
0.897917
2.75681
1.35188e-10
3.49179e-11
4.26707e-11
8.57325e-11
0.000376911
-0.000131713
3.10582e-05
0.000134506
-1.88397e-07
-7.78961e-09
8.0771e-07
0.000235389
1.20039e-05
-2.36016e-05
-5.84999e-05
0.00506894
-0.00482961
0.00780498
9.09757e-05
-8.58499e-06
-1.55271e-05
0.044676
-0.0661372
0.798696
-0.773322
41.9327
-25.2152
-19.3493
24.6702
-8.93487
4.85216
9.74699
-9.27124
-1.87741e-09
-5.02329e-08
1.5093e-07
-1.41182e-10
-4.58203
-40.3659
52.8647
4.7109
0.000467953
0.00153643
0.00072711
-0.00093701
-43.372
-0.574526
38.8172
4.96458
-4.36297
1.99682
-24.9505
27.0416
8.21331e-11
-7.73285e-11
-1.19888e-10
5.6827e-11
-2.52897
-24.6332
27.3477
-0.951929
0.108699
-0.0820028
1.68505
-12.871
-3.00357
13.9965
2.86402e-11
4.23786e-12
-3.96953e-11
7.66594e-11
4.36111e-05
1.3635e-06
-1.34939e-05
-4.24964e-06
-1.32748e-10
1.08145e-10
-8.28155e-11
4.91693e-10
93.3303
-173.13
-44.5375
112.861
3.60926e-11
2.10403e-11
-3.34827e-11
1.92308e-10
1.61406e-10
-2.09282e-10
-3.62414
2.21862
4.09359
-2.44691
5.84847
-9.30488
5.61286
-1.1258
3.40701
8.5926e-10
0.00357363
0.00142008
-0.00118818
-0.00199716
7.62458
-12.0699
-6.78872
8.81628
-8.55042e-11
1.33118e-10
-1.19168e-11
1.29086e-11
31.9179
-172.406
9.13365e-05
0.000971593
0.000158605
-0.000347077
-0.0487738
-0.0508726
0.0519823
0.179115
-0.0180284
0.0965911
-0.0170597
-0.0184283
1.45707e-09
4.37735e-09
-2.03906e-09
1.74104e-09
-5.85388e-11
8.99702e-11
1.14694e-10
4.17489e-11
-2.38868e-10
8.83001e-12
2.94263e-11
-1.09673e-11
-1.41357e-11
1.80122e-11
2.52816e-12
4.08194
6.96077
25.7569
-34.4583
0.00403641
-0.00134076
-0.000603042
-0.0672054
0.551276
-0.173656
-0.0301081
4.1442e-11
1.64734e-11
1.25618e-10
8.37544e-11
1.56581e-10
7.64745e-11
-6.23527e-12
0.0180992
-0.00402294
-0.00192188
-0.00260585
-1.84547e-10
6.07355e-11
-9.58383e-11
-2.13816e-12
-0.227748
0.160806
0.414233
-0.0335738
-27.9635
-31.8236
2.65902
-0.414664
-0.442789
-0.71243
1.62327
0.015928
0.0108046
-0.00851571
-0.000546757
1.25787
-36.239
-6.78983
45.3079
-36.4936
211.987
9.71277
24.7924
-246.846
0.110908
-0.0256139
-0.0473708
2.1401e-10
9.63024e-11
1.15375e-11
-7.38657e-11
-1.32797e-10
-9.82709e-11
-9.3783e-12
1.87709e-10
-0.0422529
39.6735
-45.6522
8.98044
-1.21498e-10
6.90009e-11
-2.2144e-11
1.18128e-11
-8.99643
-29.3617
10.9315
8.5574
3.09647e-11
-2.58096e-11
-3.0812e-10
-1.16932e-10
14.2797
-15.8453
-11.5176
16.9241
3.05686e-11
4.18112e-12
1.20562e-11
-4.44332e-11
-9.62872e-12
-8.56754e-11
1.64589e-10
-1.79146e-10
-2.16101e-10
2.24745e-12
-4.79586e-11
7.2717
-7.72986
2.87895
1.1356e-07
7.70383e-10
-1.69079e-08
-2.10135e-08
-7.90897e-11
5.45841e-11
-1.00684e-10
4.4142e-11
-5.10825e-11
2.81206e-11
-8.29669e-11
3.5603e-11
-7.5164e-12
0.0633198
-0.0491411
-0.750265
1.74663
38.4971
-26.7285
6.24352
0.0252197
-17.1283
-70.1044
29.3517
25.1852
-5.76137
6.90066
-5.87212
5.32827
1.17577e-11
-4.82151e-11
7.60552e-11
7.5995e-11
-1.67388e-12
2.81818e-11
-2.01481e-11
-2.37542e-11
6.59883e-11
-3.16942e-11
-1.47398e-11
-4.23122e-09
-4.44786e-08
-1.90848e-08
2.18674e-07
-1.17676e-12
-2.49387e-11
1.62502e-11
-5.04089e-11
-2.54811e-11
-7.01702e-11
3.91847e-11
4.33053e-11
-6.27558
-1.24904
-12.3524
30.9579
7.23647
-7.67414
6.23793
-5.63625
19.3784
15.8133
-47.7389
-2.52027e-11
-4.77118e-11
0.00229335
-0.00133253
0.00134161
2.63606
-1.57922
-16.7633
22.1785
-7.50772
2.05776
12.1289
20.4907
36.9152
-42.7104
0.0248844
0.014364
-0.011753
-0.00411766
36.1161
15.7534
-16.6359
-1.83273e-10
2.67196e-10
8.02744e-11
1.33063e-10
7.99671e-11
-6.74371e-11
1.36369e-10
-2.94756e-11
8.53257
17.5439
-5.51354
21.0318
91.7837
-38.2501
-76.0879
1.54971e-05
1.33551e-06
6.19032e-05
-2.40851e-05
-6.36937e-12
-7.98399e-12
9.98927e-11
-1.31857e-10
-8.05825e-11
-7.07303e-11
-5.28917e-11
1.22678e-11
2.20702e-10
0.462419
-2.35238
-7.69852
10.925
-1.99189e-11
5.38999e-12
1.51314e-11
-2.09242e-11
1.27216e-09
6.11475e-10
-4.64773e-10
-8.26527e-11
-32.8674
30.8489
-13.1096
9.21109
-2.09035
14.8838
-21.866
-4.04933
13.6573
-5.43061e-11
3.01168e-11
1.30933e-10
7.46936e-11
6.55528
-16.6061
5.44142
-25.2923
10.3818
-6.46236
-4.04281e-11
-7.27512e-11
-5.94206e-12
4.13158e-11
-4.20954
5.32801
0.510823
-0.378244
-1.35258e-11
-1.60476e-11
-4.28653e-11
3.65337e-11
21.8332
-11.1268
-8.81246
0.0305802
0.000832608
0.000198258
-0.000342676
-31.6746
13.2505
14.6541
19.5774
15.2174
-16.5924
-25.3066
12.1313
-14.6867
-3.90235e-12
-3.32427e-11
-8.47654e-12
1.72878e-11
3.83503e-09
-8.56869e-10
-1.06978e-11
-6.23154e-10
-8.55012e-07
-1.07368e-07
1.7799e-06
6.7619e-07
1.31316e-06
6.35046e-08
-2.55737e-07
-2.36406e-07
0.562777
-0.156901
-9.93042
16.9683
1.55599
-0.263615
-0.288449
-16.0597
42.3798
-23.7694
-3.46268
0.0146615
0.224356
-0.155791
1.14148e-07
8.47909e-08
-4.25674e-08
-1.60593e-08
-36.7798
25.0713
-14.1495
5.60212e-11
6.85723e-13
-9.94094e-12
-9.8273e-11
23.5018
-41.3598
2.66631
9.39132
-32.9726
6.38342
34.5664
-5.90054
-14.5119
-8.89034
2.08878
3.37382
2.0169
0.265848
0.0284303
-0.266724
7.96695e-11
1.62168e-10
-3.13597e-10
-9.12272e-11
-23.6237
18.6351
2.21253
2.28242
-6.14199
6.3298
-7.83258
2.30036
0.835739
-0.484108
-1.8581
1.60233
0.669663
47.9363
-12.8975
-26.6321
24.356
-11.5155
-15.9024
-4.58621
32.3188
-35.6092
-6.42293
14.8809
3.66008e-07
1.39995e-08
6.07598e-09
-10.8964
1.25192
0.611052
3.99338
-4.25993
-4.13343
10.1304
-3.6792
5.68928
1.40142e-10
-2.50469e-10
-9.44593e-11
-8.57591e-11
-21.9759
-30.1839
0.214449
4.00038
-2.01948
-0.24572
7.37521
-11.7964
32.2442
-21.9869
39.5449
-12.605
-14.6328
41.2283
-32.6046
22.6613
-27.2865
-5.05804
4.91229
-2.82837
9.131
-25.3382
-74.7619
-62.0047
14.8158
-19.9517
18.7634
-17.1335
8.77907
-5.47494
5.90101
1.34053
4.10669e-09
1.45387e-08
-7.63644e-10
2.26113
-4.54372
-1.76839
7.46092
77.947
-173.886
4.90337e-09
5.0571e-08
-1.31372e-08
5.72778
1.67565
30.0603
-32.8933
3.1993e-10
2.64795e-10
-1.10277e-10
5.43397e-11
-2.1502
21.2251
25.2809
-53.3764
-1.80395e-10
2.61871e-11
-1.92047e-10
1.87922e-11
-15.3265
28.6884
-17.9779
-12.8805
1.84065e-10
8.76796e-12
2.69106e-10
2.43566e-11
3.58896e-09
-8.67921e-09
-5.13431e-08
2.44109e-07
14.7726
-16.6427
8.33682
7.60485e-11
6.56746e-12
4.16208e-11
2.23074e-11
-3.48855e-07
-2.7708e-07
1.64e-06
-2.58421
-33.7129
11.2468
16.012
34.3453
-167.833
-91.2901
9.60994
-83.592
8.66576
0.679162
9.96037e-07
4.02683e-07
-3.74775e-07
-0.00045287
-0.000485378
0.000625197
0.00131518
-24.7823
20.9755
-43.167
54.7729
-6.60069
15.0478
13.0973
-4.77586
-1.02775e-11
-5.60414e-11
7.17179e-11
-0.457269
0.291006
-0.392762
1.0715
-12.3259
27.5284
-22.1599
6.4695
-2.08682e-11
6.59339e-11
2.73161e-11
-8.25105e-11
-1.38333e-11
-3.29897e-11
-4.4176e-11
-2.08075e-11
-1.00058e-10
-1.45811e-10
-7.77914e-10
2.55062e-09
-16.4775
-8.58877
2.24744
27.0215
-9.77213e-11
1.93918e-11
-7.88027e-11
-5.1171
3.68562
-1.49594
2.25433
-2.73801
-13.0002
29.8335
-7.9824
-7.47994
-3.14953
19.6679
-4.56514e-12
1.3063e-10
6.24762e-11
1.5602
-3.45735
17.4766
-20.3495
17.2803
-2.70339
-38.4823
1.63297
1.76049e-11
-1.46843e-11
-5.42266e-11
-2.7533e-11
-16.3817
-10.5981
8.40121
19.5324
-28.4888
7.74521
19.7567
-4.31244e-11
1.93478e-11
1.72952e-11
3.75974e-11
1.83923e-11
1.19534e-11
-2.13539e-10
-1.3304e-10
1.87734e-10
8.16688e-10
-1.58805e-10
6.91703e-11
-5.34237e-11
4.42596e-10
-2.5642e-11
1.78451e-10
6.67824e-11
2.18197e-10
22.8719
0.441363
-12.7376
-10.7783
-6.59502
-15.8021
-8.53886
37.1875
-3.51685e-11
-9.10583e-11
-5.81872
19.9235
2.03381
2.57855
6.09743
2.36455
-15.507
-1.12533e-10
-8.34339e-11
-1.27554e-10
-8.24693e-11
1.31221e-10
-1.44489e-10
-1.44026e-11
1.20932e-10
3.49211e-11
4.91662e-12
-1.00145e-11
3.93026e-12
1.7657e-11
-1.38314e-11
29.3397
-7.10253
-20.2375
-11.8885
1.01066e-10
1.90208e-11
-1.11751e-11
1.84417e-11
1.18067e-10
1.51372e-10
-1.81773e-10
2.38342e-11
4.48315e-11
7.80383e-12
-3.08665e-11
9.83209e-11
1.04802e-10
9.54663e-11
-4.83587e-11
-5.47029e-11
5.35862e-11
-3.02862e-11
1.63836e-11
3.79452e-11
-2.8624e-11
-9.10953e-11
1.69539e-11
-2.11441
3.28016
24.0443
-20.9631
46.5276
-121.752
-39.3292
107.263
-0.00157004
0.00468944
-0.0119086
0.0297043
-2.05979e-11
-1.3368e-10
-2.15577e-10
4.74032e-11
3.57074e-11
-13.9426
-2.56511
5.0681
4.99809
1.5169e-10
6.99234e-11
-1.21262e-10
-1.98646e-10
2.18231
2.28511
-10.309
0.686798
1.41559
3.97808
-13.5025
9.02774
8.12373e-12
3.13145e-11
-1.69651e-10
-29.1022
-3.21038
30.2897
-4.99097
-4.01499
4.79076
5.10447
-2.2936e-11
-5.98588e-11
-3.45546e-11
1.11348e-10
0.000890087
-8.34708e-05
-0.00032937
9.44611e-11
8.96343e-11
-3.97513
10.9798
-1.72051
-4.54761
24.0511
-12.9109
-1.17218
-8.74241
6.2426
-1.33942
4.39734
-5.74493
7.07703
-1.52067
-0.320391
-4.99105
-15.3365
-1.64999
12.7652
8.67115
-2.51598e-11
-1.49017e-11
-7.78437e-11
0.0885737
-1.92153
2.69415
-3.7611
7.04136e-11
3.76279e-11
2.93797e-11
2.78106e-11
-2.28022e-11
-6.55193e-12
-3.49172e-11
-2.81107e-05
0.000305936
4.90784e-05
-0.000112817
2.17228
4.58814
-4.93963
-1.54084
21.9878
-9.99815
-3.27082
1.04188
14.3566
-6.84952
8.76519e-11
-4.96363e-11
6.09942e-12
20.0045
3.06416
-29.5352
7.48484
-4.58447
0.271054
10.0283
6.94004
-10.7281
-4.12486e-11
-2.84918e-12
-3.4234e-11
-5.81778e-11
-29.7904
5.13426
19.7422
14.3566
-29.2778
-12.4316
-8.85438
6.69836
-0.0101357
2.49439
30.6154
-23.8652
-37.1398
50.7155
-1.06846
-45.7085
7.53973
0.936048
-8.16012
2.41284
-2.6364
0.102511
0.193461
1.13535
-2.33403
1.95996
-0.697967
-8.44348
12.5471
-11.6165
-3.32729
27.9721
-14.4711
-32.7997
6.2837
6.60249
1.04133
-0.381409
-0.0667754
0.276156
-21.4079
28.8566
-51.4075
-1.0062e-10
1.90667e-10
-5.5098e-11
-60.606
-21.0213
83.555
-3.91859e-11
-3.90591e-11
4.80733e-11
-9.01998
7.10863
3.948
-3.18027
-23.2333
-5.96637
16.5982
-0.0108617
-0.0129383
0.0141645
0.0364095
2.29402e-11
2.24786e-10
-1.73242e-10
-2.47583e-10
10.8268
39.3887
-56.1027
9.58437e-10
-4.40789e-10
-8.78411e-11
1.52982e-09
29.267
-40.9357
-174.417
46.9448
158.551
-24.3026
-2.01937
15.2834
-2.22067
5.84388
0.177715
0.477606
0.0797879
-0.663644
-20.3156
-0.0015165
5.13178
11.4108
-1.51959
-0.139685
3.41886
-1.57766
-0.560543
4.20604
-1.86232
0.660578
-1.53944e-12
6.63402e-11
1.14585e-11
-2.83671e-11
12.9968
-19.3769
9.28399
-3.58996
-0.000237717
-6.74072e-05
0.00079208
-0.593479
1.80335
0.0981504
-1.23239
2.16261e-10
-1.79968e-10
5.86722e-11
-6.12262e-11
2.28417e-11
1.03311e-11
1.03975e-11
6.34611e-11
21.2408
-9.49967
-9.71359
-15.0084
14.6861
-120.112
107.622
-1.30081
2.08829
0.594562
19.7678
-10.3703
-4.83904
-7.94428
28.348
4.48849
0.186408
0.108942
-0.122443
-0.00109511
-9.05282e-08
7.97839e-07
-1.7602e-07
45.7762
116.785
-93.0567
-63.8365
2.76265
244.236
-111.573
-101.454
-3.41342e-12
4.36962e-11
-4.34912e-11
-1.13262e-11
-5.54749e-11
1.47593e-10
-6.2051e-12
-1.96524e-11
-7.33837
-9.29909
1.56115
20.346
5.4964
-4.93256
3.98059
116.346
-53.3848
-6.9128e-11
-7.87874e-11
-6.87158e-11
-36.1672
-19.698
20.7785
0.0301658
0.00503562
-0.00822521
-0.00447551
-1.65988e-11
-3.56543e-11
-1.41918e-10
-2.51299e-11
5.10235
-23.5349
-7.53129
25.9383
-0.000384667
0.0010723
3.02325e-05
-0.760889
-0.26633
4.63584
-0.813146
-59.1622
56.5064
8.92495e-11
-1.03824e-10
2.6711e-09
3.07807e-07
-6.36402e-08
-17.1089
7.83232
5.30743
1.55504
7.68541
-2.28309
-17.1582
-6.60099
-8.78586
-5.24755
15.6932
5.48352
-24.0464
93.3785
-71.0308
7.8296e-12
2.3291e-10
5.16627e-11
-8.11887e-11
2.31978e-11
-3.57726e-11
5.85418e-12
-5.2588e-11
-3.94062e-11
-2.86453e-11
-3.2871e-12
5.61288e-11
3.58862
0.6846
-1.24303
-2.7631
0.000534762
-9.94012e-05
-0.00015816
5.61444e-05
-1.54357e-10
-2.7893e-11
-1.3043e-10
8.71399e-11
-1.35798e-10
-12.7531
36.6665
-0.210322
-17.556
14.7942
-27.4839
1.89195
2.42521
-14.7953
17.509
2.22228e-10
-2.44085e-10
-1.60641e-10
-0.184919
0.372296
-0.0514904
0.0192709
2.57774e-10
9.41943e-12
28.5064
-31.4397
10.2491
50.6805
-14.4947
-31.5064
-6.86566e-08
7.34893e-09
2.556e-07
2.73941e-08
-17.6722
26.7939
-8.38713
2.85872
-44.7468
41.9595
-18.5307
0.562535
-2.78105e-11
1.16539e-10
-9.38146e-13
0.000806123
-0.000652468
0.00962918
-0.00350664
-52.9173
64.0014
27.9737
-37.2255
-62.5825
-37.9029
80.4522
25.8057
36.0973
-8.21308
-29.9057
16.2137
47.9885
-135.118
124.459
-43.5659
-1.79753e-09
-1.80457e-09
1.01675e-08
-205.332
197.451
-8.01565
16.0417
5.73687
-4.17172
-1.69632
-1.09089
213.77
-199.342
-139.268
129.24
-1.03594e-10
1.75257e-10
-1.12384e-10
-2.61729e-10
0.000204406
0.000534265
-0.000234616
3.00487e-12
-7.0384e-11
-4.90076e-11
5.88337e-12
1.52583e-10
-1.12472e-10
-4.45049e-11
3.03519e-11
-1.32079e-11
-3.70881e-11
-1.00835e-10
6.38245e-11
125.671
-119.926
-11.0323
0.863427
1.08025e-10
-1.09595e-10
0.498295
33.0595
-12.7941
4.50932e-11
-1.73003e-10
-1.2846e-10
-2.49816e-11
-2.73496
-4.4972
39.8134
-24.3437
-3.70988e-11
1.26724e-11
6.94613e-11
-2.08699e-10
-11.0439
-0.678244
0.950677
0.589965
-0.0400966
-15.5445
16.9981
7.77204
-24.3643
-78.33
82.7592
8.20863
-1.02191e-10
1.03403e-09
-9.22717e-11
15.7895
-8.55888
14.5693
-1.47628e-10
-1.67904e-11
-5.68864e-13
-3.26833e-11
40.9275
-61.2441
-221.266
218.111
-95.3216
92.7402
-25.4066
-0.276186
1.01309
-0.475205
20.3688
-4.45143
-14.2907
3.77142
-11.1214
-83.9767
1.9572e-05
1.09231e-05
-0.000167751
0.000590315
1.97718e-11
1.76772e-11
-4.11139e-11
-9.90227e-12
6.46922
-1.70347
-5.03844
0.718524
-48.6134
-26.555
37.1996
40.4043
-1.84923e-11
7.20837e-12
-3.19229e-11
2.27891e-08
-1.24049e-08
5.9362e-08
-6.37334
-3.40311
6.58521
7.03318
4.18927e-08
3.93118e-08
-138.376
14.8106
131.237
-1.12424e-11
-2.78155e-11
-3.37893e-11
-2.04255e-11
2.66676e-10
-2.25579e-10
5.08743e-11
3.49337e-11
-1.15447e-10
3.04859e-11
-1.81246e-11
1.0105e-10
-4.56148e-05
0.000344297
-0.000207983
-2.42805
-5.66724
5.03891
-8.54014e-11
-2.14333e-10
2.40939e-10
7.17088e-11
3.43326e-14
-5.2582e-11
-5.60387e-14
2.18079e-12
-61.3255
-182.872
138.749
113.709
134.561
-23.8735
-63.0313
-47.0199
-7.48876
-7.71309
3.10112
18.4225
-0.0175958
0.110704
-0.0220463
-0.0173653
0.00071553
3.32891e-06
-0.00016974
-0.000104347
3.04696e-10
3.13402e-10
-1.93254e-10
15.2644
-34.9699
21.0558
-1.72962e-11
-1.16351e-10
2.86982e-10
1.40793e-11
1.20035e-11
-1.01385e-10
-3.27467e-11
-0.0036643
-0.00309624
0.0107085
0.00317947
2.9976e-11
-3.81317e-11
-1.65339e-12
-1.26479e-10
1.02308e-07
-5.37286e-08
1.01584e-07
3.76394e-08
-1.45313
-12.2912
22.5382
-8.9435
-49.0313
15.4039
50.9193
-17.1108
3.29566e-11
9.32734e-12
7.52169e-12
8.86238e-12
-0.0304132
0.129581
-0.03775
5.56797
-5.71798
-6.70468
6.7074
1.07674
22.0617
0.00818755
8.00741
-0.0199314
-3.4007
-3.82302
38.895
-8.30843
-25.6194
-1.25504e-10
-8.1469e-11
-1.25238e-10
9.06225
-12.3499
-13.9405
21.2486
19.7497
-6.2852
-1.87884
10.0261
-6.42656
-8.46906
19.8
-10.3642
10.0433
10.9977
-2.29093
-20.9275
5.18687
-1.15489
7.45543e-08
-3.5817e-08
-5.23688e-08
2.94866e-07
-178.808
80.0008
65.5322
50.6278
0.000173858
-5.00878e-05
-1.62699e-05
-3.92156e-06
-7.9504e-09
2.02082e-08
5.5412e-08
-1.37336e-08
-21.7494
65.4257
-46.3891
29.2061
-20.4343
-43.6033
35.711
0.521768
0.0203685
-0.380526
-0.171911
2.23495
-4.18843
0.528102
1.83853
1.11461e-11
5.22563e-11
1.22361e-11
-2.39923e-11
-0.0271741
-0.0507683
0.0241752
0.121558
4.93662e-11
2.749e-11
4.81902e-11
3.75e-11
6.16777e-08
-2.65159e-09
7.86746e-09
-1.66794e-08
9.56605
-43.0339
49.0327
-15.0564
-1.55495
0.922894
0.703808
-33.7901
-13.2808
-23.4817
40.9209
-77.5681
-22.2615
56.277
-14.7278
5.807
-5.1558
11.3055
1.51625
-1.73064
-2.35654
2.34046
10.0224
-73.2705
29.6781
-0.000101074
0.000375282
-9.31213e-05
0.000108346
55.4615
-0.805523
-93.6925
23.2203
15.4568
16.4872
-9.40452
-2.63453
57.5378
-53.2998
-31.8452
23.9287
-14.21
-3.12855
-0.0966904
-1.39278
-2.45566e-11
-2.43004e-11
2.44346
1.95576
-1.96032
-7.09258e-06
9.40823e-06
-2.60229e-05
2.64184
-1.48691
2.70738
0.577391
-0.0944562
14.3116
7.9332e-11
2.53298e-11
-2.22105e-10
8.5543
18.486
8.27218e-12
8.31948e-11
-5.83027e-11
-9.34677e-11
3.69955e-11
1.07561e-10
-5.59471e-12
-4.07461e-11
3.59448
3.53741
-7.30037
2.20149e-11
1.17307e-11
-2.0698e-10
-9.51825
0.995649
-1.59107
10.6018
-9.44034e-11
2.13251e-11
-8.47282e-11
-33.1996
-3.84765
43.7551
0.0101725
0.0024427
-0.0013373
-0.00378159
-1.46848
5.86899
-8.44783
0.0131019
-28.5471
-18.4982
19.7402
9.22278
4.65502
-7.98553
-0.187021
6.78351e-06
-2.80107e-07
-7.14982e-07
-3.02448e-07
25.9771
13.1918
-18.9893
-8.78917
5.33037
-9.70498
-17.6198
12.7923
-1.51534
12.1358
-5.07932
-1.11853
8.65377
-3.23436
-5.85163
-0.641067
5.21285e-11
-3.7226e-12
1.43125e-10
-29.5771
3.82133
14.317
0.420607
17.7515
24.1202
43.5603
-21.7469
0.652642
-8.45989
37.8949
-50.2188
15.0022
-12.9979
-1.08014
9.60551
5.30544
-17.0818
13.3197
-25.0776
-14.765
18.8252
-4.54359e-11
1.49727e-10
-2.55518e-11
26.6914
-22.0529
4.77141e-07
4.13238e-07
-9.70934e-08
-1.72014e-07
5.60572e-11
-8.33025e-11
7.80659e-11
-1.13029e-11
1.93594e-11
2.53419e-09
-6.04378e-10
3.24932e-10
0.537328
-3.83967
0.464918
6.09044
30.2149
2.88747
-14.6253
4.12583e-11
-2.44874e-10
5.51567e-10
3.71443
-2.84661
9.32487
-13.8824
8.16184
13.6444
21.8213
-8.90486
-14.667
125.375
-22.3832
36.2929
-126.204
5.07029e-11
1.12298e-10
-5.25491e-11
3.37673e-12
2.62706
3.18645
-10.7086
1.5284
-0.971293
3.03937
-1.9324
8.05624e-11
4.17301e-12
1.88801e-10
8.34935e-11
7.71135e-11
-1.79546e-11
2.49905e-11
-3.18134
1.81526
4.94789
-3.03614
-5.68122
-2.57143
9.72785
3.68216
-5.50629
1.45519
5.66878
-22.1545
21.9699
1.05039e-10
-5.70726e-11
6.24778e-12
9.21778e-12
-0.017318
0.0459554
0.0640822
-21.0641
7.72379
1.55888
25.373
-3.43632
-4.12919
7.82715
4.05963
-17.5168
17.7685
1.33531
11.9612
-17.4428
1.76885
14.9915
19.0991
-16.4407
-4.88202e-07
1.9088e-06
-2.56482e-07
3.11628e-07
-1.59797e-10
-1.59891e-10
1.06272e-10
-5.79271
1.00612
7.51363
-2.57585
1.98321
-5.19594
6.82239
-3.43058
-0.705361
-30.3137
31.7877
6.85394
-7.34927
-2.38291e-10
6.47419e-11
-0.0306115
0.178499
-0.0685271
0.0293584
9.96457e-11
-1.12509e-10
8.69929e-11
1.21876e-10
-2.9468
0.326506
4.29283
1.19641
30.5725
10.4571
0.51194
-46.2796
-10.6376
-26.31
29.0338
-2.84091
-13.6296
-3.17815
-0.135582
11.3779
91.1196
-1.55175
-90.5581
9.55199e-10
-3.83021e-10
6.7438e-11
-4.58621e-11
-1.929
2.39653
-7.52705
5.22277
-4.08921e-11
-2.01103e-11
3.22544e-11
-8.34956
9.11829
-14.753
37.6969
6.49995
-3.47528
-34.8672
-8.87139
-0.64101
4.88044
3.55218
2.39052e-09
-3.13232e-10
3.85124e-10
-4.16221e-10
-3.40888
-17.5257
21.8216
-28.7666
2.86593
-1.34934e-05
2.87532e-05
8.36488e-06
-31.0788
-0.00585242
0.0138012
0.000807085
-0.629209
5.08474
-4.47201
-1.37827
4.91909
-5.05657
-1.54879e-10
-1.10931e-10
-9.75299e-11
1.37681e-10
0.0654188
0.00767908
-0.00581008
-0.0250787
5.42884
0.781957
-11.2064
-0.855621
-4.77452e-05
-5.80537e-05
0.000223347
9.60514e-05
-21.9386
5.07733
-3.76204
17.8623
1.18858
-0.536145
0.0993647
-4.7121e-05
7.46216e-05
4.22354e-05
-2.20463e-05
-12.6468
-204.526
-17.6655
28.8615
-12.4018
6.17122
-2.4869
1.22961
37.7869
-98.9452
-8.58114
76.0885
1.63918e-11
-2.20883e-11
2.45012e-11
18.6388
-16.2029
-3.38663
29.4138
-24.5881
-17.5324
-9.1845e-05
0.00015438
-0.00017627
0.000488474
0.145779
0.883389
-0.421358
-0.17897
-3.76286e-10
-3.25129e-10
1.98911e-10
1.99899e-09
-9.9136
-3.13036
17.6978
-2.44311
-0.0100449
-6.8294
0.0501345
10.2487
-2.81023
3.74307
-15.8963
0.0593553
-0.110852
0.194177
-0.017636
-6.67074e-08
-3.54185e-08
2.88115e-07
1.32114e-08
-15.479
26.4403
0.257848
-17.3402
-13.0112
0.685837
-0.728922
0.687071
25.9762
-25.9955
39.4854
-35.8425
9.2384
1.50845
-8.91894
-29.1701
39.011