/*--------------------------------*- C++ -*----------------------------------*\
| =========                 |                                                 |
| \\      /  F ield         | OpenFOAM: The Open Source CFD Toolbox           |
|  \\    /   O peration     | Version:  2312                                  |
|   \\  /    A nd           | Website:  www.openfoam.com                      |
|    \\/     M anipulation  |                                                 |
\*---------------------------------------------------------------------------*/
FoamFile
{
    version     2.0;
    format      ascii;
    arch        "LSB;label=32;scalar=64";
    class       volScalarField;
    location    "0.3";
    object      T;
}
// * * * * * * * * * * * * * * * * * * * * * * * * * * * * * * * * * * * * * //

dimensions      [0 0 0 1 0 0 0];

internalField   nonuniform List<scalar> 
32842
(
299.83
300.685
300
300
300
300
315.581
250
300
300
250
250
299.953
300
300
299.931
299.996
300
299.889
300
300
299.997
300
300
299.996
300
300
300
304.153
299.788
301.836
300
250
299.869
250
250
299.838
299.727
299.947
299.865
300
300
300
300
299.916
299.844
299.928
299.868
300
305.046
250
300
299.855
302.615
300
300.737
300
302.767
300
300
250
299.812
300
300
299.88
299.491
300
299.943
300
300.431
300
301.089
300
300
300
299.86
303.856
300
300
301.489
300
300
300
300
300
300
300
300.83
305.842
300
300
300
300.097
300
300
299.822
300
300
300
300
300
299.837
301.065
301.014
300
299.846
314.156
300.595
299.779
300.246
300
300
300.533
300
300.885
300
300
300.828
300.543
299.778
300
300
305.262
300
300.543
300
299.983
299.86
301.277
300
300
300.7
299.871
299.851
299.865
300.009
300.83
301.088
299.821
299.959
299.952
299.88
300
300.82
299.911
299.898
250
299.877
300
299.998
300.657
300.052
299.999
301.132
300
300
300
299.877
299.813
300
299.85
300
300
300
300.202
299.847
300
299.95
299.769
304.209
300.568
299.815
300.45
300
300
301.276
299.936
300.678
300
300
299.904
299.996
299.995
300
300
299.994
299.831
300
299.899
299.981
299.99
300.452
300
300
300
299.994
299.736
299.96
300
300
299.838
299.917
300.703
301.887
302.783
300.009
299.963
300
300
299.849
299.881
300.067
300.934
300.967
299.998
300
299.864
299.889
299.773
300.034
300.493
300
300
299.74
299.772
300.014
300
300
299.923
301.133
300
300
299.871
300
301.123
300
300
301.028
299.985
300
305.108
299.991
299.785
301.924
299.899
299.85
300
300
300
299.999
300
300
300.008
300
299.92
300
299.986
300.976
299.998
299.867
300
300
300
300
300
300
300
299.965
299.66
300
300
300
300
300
300
300.451
299.817
299.966
300
299.829
300
301.536
300.588
300
299.816
300.645
301.292
300
300
300
250
300
300
301.183
305.184
300.429
300
300
299.905
300
250
300
299.999
300
300
300
300
300
299.75
300
299.999
300
300
300
300
299.999
299.871
300.066
300
299.775
299.81
304.552
300
300
300
299.999
299.842
300
299.937
300
299.737
300
300
300
299.958
300
300
300
300
299.995
299.9
299.741
300.758
300
300
300
300
300
300
300
300.045
301.106
299.837
300
300
299.915
299.92
299.854
300
299.81
300
300
299.961
305.122
300
300
300
300
300.867
300
300
250
299.959
300.009
300
299.835
299.852
300
300.681
300
299.783
300
299.679
299.819
299.987
300
300
300
300
299.95
299.998
299.864
299.999
300
299.947
300
299.908
299.761
299.809
299.991
300.878
300
299.788
300.446
300.967
300.097
299.774
299.809
300
299.93
299.88
299.974
300
299.918
299.993
299.841
299.845
299.849
299.96
250
299.897
300.016
300
299.974
250
300
299.876
300
300.042
300
299.79
300
300
299.832
300
300
299.91
269.055
302.269
300
300
306.189
299.959
300
299.997
299.839
300
300
300
300.543
300
300.012
299.853
301.677
300
299.876
299.841
300
300.153
299.727
300
300
300
300
300
299.949
299.914
300
299.934
300.767
300
300
300
300
299.893
300
300
300
300
300
300
300
299.85
303.177
300
300
300
300
300.624
300
299.934
300.915
300
300.115
299.978
300
300
300
301.023
299.806
299.96
300.861
300.2
300
299.764
300
300
300
300.865
299.725
299.961
300
299.823
299.697
299.93
300
299.779
299.974
301.458
250
302.986
300.917
301.105
301.129
301.456
299.827
299.893
299.997
299.868
300
302.709
300
300.622
299.988
300
300
305.738
300
250
302.032
299.946
301.399
300.33
301.031
299.985
300
299.983
300
300.747
300
300
299.906
304.678
299.984
299.887
299.853
299.999
300
304.794
304.873
300
300
299.999
299.986
304.917
300
299.809
300
300
301.578
300
299.98
303.555
300
300
301.334
299.906
299.858
301.649
300
300
300
301.088
300
300
300
299.913
299.927
299.812
300
299.999
300
299.799
301.485
300
300.06
301.973
300.012
300
300
302.39
302.028
250
299.898
302.768
300
304.576
300.92
304.561
300
300
300
300
300
305.302
300
299.943
300
299.9
300
299.821
299.997
299.966
305.435
300
299.836
300
304.807
304.545
300.984
299.886
303.955
300
300
300.015
300.626
300
300
299.937
300
302.295
300
300
300
300
300.65
300
300
301.801
302.019
300.023
300
300
300
299.876
300
300
300
300
300
301.414
301.15
300
300
301.625
299.977
301.091
299.906
300
299.889
299.795
300.042
300.022
301.821
300
302.925
300
300
301.67
301.328
301.079
301.025
300
300
300
300
301.293
301.391
301.723
300.636
299.972
300.569
301.275
300
304.616
299.936
299.866
299.848
301.402
300
299.923
300
299.993
300
300
299.862
300
300
299.971
300
299.752
300
299.819
300
299.909
299.815
299.817
300
299.833
299.854
299.979
300.027
300
300.255
299.846
299.882
299.792
299.825
300.083
300
299.884
300
300
300
299.966
299.873
300
299.846
299.79
299.967
303.985
300
299.982
299.985
300
300
300.531
299.891
299.907
299.945
300
300
299.868
299.951
299.83
299.795
299.834
300
300
300.695
300.749
299.803
299.914
300
299.999
300
299.977
299.739
299.772
299.991
303.598
300
300.297
300
299.896
299.875
300.383
300
299.808
299.737
300
299.843
300
300.004
300
300
300
299.976
300
299.892
299.996
300
297.727
300.044
300.024
301.363
300
299.907
299.972
300
299.998
300
299.994
300.009
300.041
300
300
299.979
299.993
299.824
299.993
299.932
300.894
299.855
299.893
299.973
300.814
300.007
299.849
300
300
300.514
300
299.899
299.916
300
300
299.808
300
300
300.21
299.998
300
250
299.939
306.193
299.863
299.896
300.078
300.129
299.816
299.88
300
300
299.997
304.79
300
299.926
300
300
299.971
300
299.179
299.806
299.903
300
301.054
299.89
299.876
301.102
299.922
299.96
299.826
300
299.845
299.852
299.916
304.351
299.767
300
300.045
299.994
299.811
299.777
300.301
300
299.999
299.812
300
299.852
300.256
300
299.91
299.816
300.066
300.142
299.806
300
300.264
304.032
299.91
300.605
305.57
300
300
299.867
299.865
300
300
299.854
299.963
299.999
300
300
299.803
299.8
300.532
300
299.929
300
299.944
299.869
306.033
299.772
300
300
299.981
299.987
299.878
299.877
300
299.953
299.8
300
300
300
301.126
300
300
299.943
299.906
299.743
300
306.22
301.82
300
300.286
300
300
300
300
299.953
300
299.69
300
300
299.958
299.841
300
301.978
299.889
300
299.966
300
300
300
300
300
301.635
301.41
305.307
299.907
300
300
300
304.966
300
304.955
304.826
305.004
304.85
300
301.282
300
301.072
250
300
300.939
301.081
300.023
300
299.999
304.803
299.904
300.014
300
250
300
300
299.819
300
299.913
299.832
299.863
299.84
300
299.964
299.797
301.033
299.907
299.853
300.975
299.875
299.85
300.067
299.833
301.334
302.957
299.837
299.779
299.868
299.98
300.415
299.828
300.837
299.844
300.721
300.018
300.046
301.563
299.805
300.015
299.921
300
300.066
300.967
300.053
299.991
299.859
300
299.92
299.858
299.802
300.723
299.92
299.823
250
300.279
299.741
299.823
301.181
301.488
299.92
300
299.859
299.979
301.03
299.972
299.761
301.022
299.884
300.095
300.99
299.942
300
299.955
299.998
301.616
300.081
299.986
300.883
303.28
299.92
299.992
301.067
299.907
301.141
299.981
299.774
299.976
300.197
301.238
301.052
300.661
301.135
299.913
250
299.99
300.406
299.765
300.032
299.921
299.9
299.952
300.022
300.012
300.235
300
300
300.148
300
300
299.532
300.754
300.268
300.483
299.859
305.24
299.817
300
300.041
299.865
300.043
304.857
301.549
299.78
300.51
300.037
299.852
300.757
300.637
299.884
305.355
300
300.057
300.594
299.95
300.003
304.554
300.117
301.251
299.95
299.787
300
299.871
300.715
300.876
300.61
300
300
301.392
299.886
299.898
302.764
300
301.239
301.305
300
299.722
301.316
300.689
300.629
301.114
299.795
299.503
300.667
299.971
301.226
300.672
300
299.919
299.944
300.26
302.218
299.82
299.823
303.845
299.983
300.594
304.516
300
300.819
304.74
300.966
300
299.95
300.592
299.855
299.864
306.35
300.726
299.777
301.107
300.037
299.908
299.921
299.833
301.157
300.565
300
300.524
300
305.893
300.03
304.892
250
300.583
304.558
304.732
303.925
301.242
301.393
250
300.537
300
301.226
300.925
300
300
301.306
299.91
300.493
300.012
300.737
300
301.031
299.923
299.883
250
299.899
301.473
299.859
300.004
304.355
299.949
300.474
304.121
301.241
299.785
300
300
300
299.963
250
300
299.906
299.979
305.468
299.881
300.141
300
299.891
299.957
299.837
302.264
300
300
304.881
300.203
299.989
300.478
304.307
299.795
300
300.164
301.186
301.029
299.955
301.338
300
306.549
304.666
300.964
300
304.661
300.535
300.046
300.437
305.184
300.465
300.43
300.451
300.142
300
301.157
299.999
301.369
300
300
299.874
300.568
299.897
300
299.931
301.978
300.822
300
299.902
301.423
299.933
299.889
300
306.128
304.252
299.978
299.984
300.008
300.905
300.988
299.981
300.029
299.846
301.074
301.887
299.996
300.103
299.929
299.891
299.977
300.421
300
299.802
299.934
299.988
300.806
300
301.242
301.531
300
299.943
301.211
300
300
300.025
305.143
299.999
300.795
299.822
299.761
300.658
300.421
300.313
300
299.944
299.861
299.998
299.945
299.899
299.854
299.857
301.215
300.25
299.884
301.237
300.907
299.909
299.989
300.488
300
300.016
301.023
299.793
300.049
300.69
300.503
304.726
301.267
299.796
299.953
301.563
299.846
299.619
301.278
301.667
300
299.838
300.265
299.796
301.681
299.999
301.525
299.978
299.874
300
299.817
301.507
299.987
300
299.823
301.501
302.874
300
301.455
300
300
300.332
299.788
301.264
300.901
300
300.265
299.927
301.276
299.762
300.696
299.8
301.069
300
300.893
299.979
299.929
299.836
301.077
303.416
300.865
299.994
299.878
300.935
299.919
300
302.072
300
301.025
299.764
299.823
299.938
299.894
299.882
300
300.644
299.917
300.889
300.311
300.48
299.942
299.959
299.973
299.812
300.006
300.386
299.931
299.828
300
299.902
299.919
299.635
299.944
300
301.302
299.995
299.907
299.967
299.876
299.949
299.999
299.955
299.909
299.917
301.38
299.92
300.039
300.014
300
300.628
300.861
301.11
299.743
300.957
299.729
300.603
299.952
299.868
300.013
301.114
301.15
299.993
300.987
300.933
300.819
299.782
300.984
300.864
300
300.017
301.377
301.031
299.876
300
299.904
299.907
301.457
300.972
299.921
300
300.07
300.051
300.7
301.985
299.931
301.419
301.357
300
300.842
300.019
300.687
300.952
299.994
300.076
299.94
299.96
300.878
299.882
300.758
299.886
299.894
299.81
299.944
299.998
300
299.995
301.012
299.886
301.086
299.969
300.903
301.054
300.021
299.876
303.772
300
299.9
300.535
301.059
299.903
300.12
299.994
299.703
301.059
305.121
301.032
299.812
300
300.021
299.936
301.062
299.98
299.911
299.958
300.138
299.835
300
301.048
300
300.006
300
300
303.971
299.8
300.919
300
299.886
299.814
300.997
301.024
299.569
300.843
299.88
299.99
299.915
299.918
300
300.745
300.885
300
299.858
299.978
299.991
299.894
300
299.87
300
299.976
299.995
301.089
300
300
300
299.823
299.945
299.881
300
300
299.859
301.025
301.132
301.034
299.956
299.857
300
300
300.864
300.881
300
299.995
299.944
300.003
300.595
300.927
300.939
301.183
299.906
300.028
250
300.048
300
299.921
299.983
299.686
300.457
301.757
300.139
300.134
299.991
301.346
300
300
300.911
299.954
299.827
299.918
299.893
301.727
300
300.473
301.441
300
300
300
299.887
300
300
299.875
299.965
300.706
300.576
300.741
300.394
300.584
300.78
300
300
300
300.793
300.806
299.997
300
300.7
299.817
300.491
300.677
300
299.988
300.638
300.003
300.096
299.891
300
300.456
299.998
299.979
300
300
300.008
300.097
300.015
300.397
300
300
300.94
299.867
300.029
299.883
300
305.077
300.446
300.169
299.942
300.756
299.845
299.869
300.777
300.446
300.841
300.771
300
300.5
299.874
299.955
299.857
304.752
299.809
299.931
299.869
300.524
299.999
299.763
300
299.843
299.9
299.778
299.984
300.794
300
299.961
300.114
299.997
300
299.813
300
300
299.904
300.681
299.993
301.026
299.972
300.722
299.973
300.702
303.622
300
300.982
300.75
300.672
300
299.933
300.768
299.997
300.564
299.847
299.927
300
299.982
299.952
300
299.937
300
299.987
300.932
299.882
299.864
299.892
300.455
299.928
299.849
299.837
300
299.856
300
299.903
299.991
299.806
299.86
300
304.221
305.06
299.814
299.911
300
299.863
299.898
299.998
299.98
300.544
300
305.69
300.017
300.458
299.874
299.95
300.758
300.005
300.026
300.243
300
299.874
299.75
299.869
300.019
300.039
300.604
301.16
299.74
299.86
299.851
301.416
299.884
300.59
299.999
300
299.965
300
299.995
302.49
300.238
300.374
300.375
300
300
300.383
299.976
300
299.827
300.503
300.017
300
300.362
300
299.934
300
300
299.843
299.983
300
299.918
300.142
300
300.737
300.041
250
299.816
299.704
299.948
300
299.999
299.852
299.872
300.004
300.783
299.936
299.886
300.148
299.999
300.777
300.977
299.933
300.664
299.959
300.861
300
300
301.61
300.097
300
299.976
300
299.906
299.998
300
300.65
300.106
299.95
300.726
300.562
300.948
250
300
299.994
306.145
299.998
299.961
299.476
300.006
299.94
299.997
299.597
299.615
299.957
300.012
299.948
300
300.022
299.83
299.804
299.943
299.967
303.156
300.598
299.949
299.587
299.802
299.962
300.093
303.613
300
300
305.375
299.862
300
299.998
299.94
300.038
300
299.372
299.939
300.575
299.863
300.54
300
300.249
300
300.595
299.99
300
300.113
299.939
299.938
301.679
301.082
299.963
299.923
300
300.595
299.969
300
299.857
300.461
299.755
300
299.975
300.986
301.017
300.196
301.15
300.944
301.242
299.833
300.049
300.355
301.193
300.048
299.998
300.708
299.883
305.098
299.939
299.905
300
300
301.037
300
299.865
300.28
304.529
300.258
300.405
304.758
300
299.969
301.1
299.881
299.999
299.779
301.05
300.602
301.036
299.976
300.903
299.823
304.655
300.594
299.857
299.928
300.13
300.695
299.862
299.999
299.924
300.69
300.601
300.749
250
299.863
300
299.965
300.007
300
304.838
299.876
299.861
299.927
300.959
300.921
299.817
299.955
300.033
299.835
300.723
300
299.886
301.139
300.825
301.277
300
300.65
299.913
300.792
300.775
301.264
299.976
300.63
300.973
299.821
299.999
299.918
299.878
300.445
300.725
300.761
301
300.657
300.899
299.989
301.168
299.917
299.767
299.966
299.922
299.947
299.958
299.994
299.968
300.034
300.044
299.844
299.868
300.646
300
299.983
300
300.042
299.836
300.003
300
300
299.877
299.876
300.619
299.742
299.946
299.735
300
300.211
300
299.589
300
300
300
299.814
299.864
300
301.341
299.903
300.385
299.998
299.865
299.804
299.817
299.825
300.146
299.873
299.873
299.862
299.999
300.522
300.663
299.883
299.709
299.943
299.96
299.853
299.987
300
300.239
300.368
300.433
300.252
299.907
299.997
299.996
300.179
299.81
299.992
299.808
299.977
299.997
299.991
300.509
299.821
299.834
299.971
299.931
301.099
300.741
300.489
300.956
304.925
299.873
299.806
300.233
300.06
299.988
300.324
300
299.936
299.885
299.943
304.052
301.043
299.846
300
299.946
301.392
300
299.96
300
300.716
300.651
301.059
300
299.948
300
299.985
299.77
299.955
299.914
299.818
299.968
299.865
299.789
299.823
299.89
299.862
300.602
299.952
300.821
300.443
301.373
301.077
299.889
299.87
300.648
300.854
300
300.108
300.08
300.693
300.012
300.113
300.814
301.35
301.359
300.768
300.783
299.994
300.64
301.002
300.751
301.01
301
299.998
299.797
300.003
300.08
299.75
300.699
299.883
300.524
300.776
300.075
299.935
299.962
300.588
300.447
300.016
299.887
299.895
300.671
299.961
299.967
300.081
300.026
300
299.849
299.999
299.983
300
299.84
300.596
300.611
300.697
300.682
299.982
300.745
299.862
299.942
299.754
300.845
300.406
300.482
299.952
300.628
299.904
299.875
300.747
299.793
299.867
302.043
299.91
300
300.616
299.969
300
300
300.506
300
300.865
299.988
304.38
300.82
300.029
299.92
299.856
300.48
299.904
300
300.144
300
300.157
300.681
299.826
299.814
299.535
299.968
299.993
299.942
299.748
300.624
299.95
300.639
299.99
299.987
299.944
300
299.78
299.731
299.809
300
299.931
299.972
300.518
299.993
300.444
300.175
299.864
299.998
303.807
300.174
300
300
299.773
300.465
300.441
300
299.795
299.225
300.388
300.682
300.445
300.849
299.781
299.761
299.913
300.833
299.808
299.988
300.4
299.828
299.984
300.244
300
299.892
300.035
250
300.611
300.401
300.103
299.913
300.256
299.914
299.836
300.141
299.831
299.966
299.802
299.935
299.875
301.729
299.992
299.84
299.727
299.844
299.885
299.976
299.988
299.992
300.077
305.088
300
299.803
300
299.989
300.221
299.952
299.922
300.647
300.467
299.813
300.087
299.793
299.998
300.238
299.896
300.652
300
300.723
300.541
299.972
299.881
300
299.954
299.832
300.644
300.462
300.668
300.042
300.452
300.631
299.925
303.804
299.901
300.662
299.901
299.848
299.842
299.924
299.969
300.096
300.549
300.599
300.321
299.865
300.535
300.526
300.418
300.598
300.314
299.926
300.849
300.206
299.726
299.743
306.056
300.622
300.848
299.991
299.89
299.849
300.085
300.614
300.023
300.481
299.91
299.739
300.714
299.986
301.137
300.512
300.771
300.017
299.956
300.065
299.991
300.065
300.762
300.091
300.72
299.942
300.35
299.997
300.005
299.919
302.776
293.454
299.848
300.197
299.867
300.142
300.083
299.908
299.907
300.078
299.824
300.71
300.628
299.794
300.449
300.619
304.463
299.954
299.838
301.156
300.53
299.845
300.732
302.243
300.393
300.724
299.753
300.024
300.389
299.861
299.989
300.703
300.782
299.844
299.862
299.746
299.937
299.988
300.009
299.747
300
300.785
300.155
300
300.888
300.022
299.823
299.846
300.311
300.501
299.755
299.882
299.986
300.855
300.18
300.094
299.86
299.929
303.098
299.901
300.861
299.802
299.921
299.93
300.931
300.794
250
299.84
300.428
303.001
300.755
299.799
300.862
300.974
300.927
301.003
299.692
300.928
299.74
299.97
299.726
300
299.865
299.894
300.035
300.731
299.996
300.31
299.79
299.771
299.775
299.911
299.816
301.048
299.994
299.916
305.447
299.954
300.992
300.554
299.93
299.37
300.722
301.113
300
300.001
299.84
299.952
299.904
300.039
299.985
299.91
300.93
300.845
300.018
300.456
300.03
300.317
299.885
300.844
299.759
300.882
299.834
299.978
299.884
300
300.586
300
300
300
300
300
300
299.994
301.088
300
298.991
299.168
300
300
299.997
299.863
299.926
305.718
299.899
299.947
300.064
300
300
299.578
299.486
300
299.997
299.898
299.927
300
300
300
299.958
299.889
300
300
300
300
300
299.942
300.398
299.816
300
299.893
299.975
300
300
300.574
300.479
299.981
299.855
299.958
300
300
299.907
300
300
300
300
300
300
300
300
299.938
300
300.505
300
299.975
300
300
300
300
299.746
299.998
299.88
299.999
300
300
299.989
300.008
299.95
299.941
300
300
300
300
300
300
300
300
300
300
300
300
299.999
300
300
300
300
300
300.697
300
300
300
300
300.568
300
300
300
299.999
300
300
300.523
300.721
300
299.995
300.509
300
300.26
299.997
300.696
301.158
299.964
300.636
300
300.615
299.99
299.982
300
299.999
299.886
300
300
299.998
300
300
300
300
300
300
300
300
300
300.394
300.443
300
299.97
300.678
300
300.582
300
300.506
300
300
300
300
300
300
300
300
300
300
299.794
300
299.873
300
299.849
300
300
300
300
300
300
299.875
299.844
300.159
299.952
299.697
300
300.044
299.89
300
300
300
300
300
300
299.796
300
299.999
299.997
300
300
300
300
300
300
299.997
300
300
300
300
300
300.62
300
300
300.532
300.588
300.638
301.61
301.631
300.04
299.998
300.573
300.617
300
300.48
299.996
299.949
300.627
305.251
300.622
299.961
300.505
305.399
300.84
300.564
300.019
300
300.284
299.921
300.511
300.594
300.711
300.615
300.526
300.571
300.216
302.997
300.804
299.773
300
299.935
250
300.587
299.825
299.997
299.914
300
299.89
300
300.512
300
300.039
299.83
300.681
300.018
300.772
299.929
300.129
304.708
301.335
299.96
299.952
299.925
300.62
299.985
299.78
299.952
299.831
299.778
300.181
299.945
299.983
299.988
300.642
299.924
299.925
299.99
299.998
300.864
300
300
300
299.911
300.008
299.908
300
300
301.05
302.311
299.867
300.02
299.83
299.86
300.135
299.816
299.768
300
299.887
299.938
299.727
299.831
299.812
302.971
250
300.413
299.914
299.861
299.856
300.019
299.926
301.228
299.843
299.792
300.603
299.98
300.45
300.618
301.961
300
300.36
300.426
300.012
299.905
299.928
300.037
299.855
299.912
302.018
300.042
300.708
299.926
300.249
300.722
300.462
299.905
299.887
299.965
300
299.888
300.464
299.956
299.864
300.431
299.934
299.905
301.375
299.875
299.909
299.898
299.967
300.798
299.793
301.467
299.924
299.913
300.586
301.036
300.588
299.892
302.11
300
299.909
300
300.552
300.032
300.662
300
300.094
299.892
299.918
300.611
300.648
299.989
299.968
300.001
300.038
301.515
300.417
305.149
300
300
300.135
305.125
300.641
300.638
300.382
301.527
301.087
301.588
300.462
300.878
300
300.439
299.923
300
304.133
299.829
301.707
301.095
300.608
299.741
300.042
300.016
301.146
300.428
299.931
300.748
300.603
300
301.215
299.832
301.125
301.495
300.066
300
300.097
300.863
299.827
300.999
300.013
300.972
300
301.229
300.032
300.077
301.04
301.235
301.5
304.426
299.905
300
301.114
301.792
300
300.499
301.928
299.965
299.954
300
301.241
299.921
299.986
299.96
299.995
300.886
300.608
299.923
299.946
299.896
299.87
299.883
300.623
300.516
300.63
301.272
300.432
300.504
300.852
302.71
299.899
299.8
300.377
300
299.996
300.144
301.176
300.555
300.923
300
301.504
300
300
301.38
300.577
300.43
301.113
300
300
300
300.499
299.844
300.415
300.508
301.032
300.344
300.421
301.66
300
300.842
299.861
300
299.948
300.035
303.348
300
300
300.694
301.15
300.782
305.478
300
300.521
300.056
299.877
300.989
305.057
299.86
300.914
301.106
299.974
301.019
300.548
304.46
300.533
301.894
300.603
300.028
300.834
300.677
300.631
300
299.969
301.457
300.515
300.914
300.823
300.972
301.281
300
300.12
300.952
300.593
301.631
300.605
300.58
301.256
300.97
300.461
301.069
300.621
300.407
300.741
299.997
300.594
300.752
300.515
299.991
299.997
300.511
300.403
299.998
300.539
300.396
299.997
300.209
300
300.435
300.918
300.633
300.769
300.46
300.595
299.998
299.961
300.115
299.993
300.297
300
300.793
300.064
300.024
300.589
300
299.768
300
300
299.775
299.82
300.687
300
300.054
299.81
300.309
300
300.523
299.982
300
300.427
300.719
300.288
299.968
299.993
300.533
299.977
301.05
299.975
299.893
300.006
301.333
300.548
299.85
300.556
300.583
300.15
299.993
299.973
300.259
300.508
304.441
300.721
300.52
300.571
300.629
299.69
300.835
300.371
300.722
300.355
300.565
300.081
302.024
299.756
300.671
300.348
300.082
300.502
300.964
299.341
303.655
300.746
300.545
299.205
300.84
300.65
300.531
300.018
299.692
303.812
300.951
300.756
300.119
300.322
300.707
300.981
300.607
299.829
300
300.794
299.867
299.778
300.763
300.756
300.736
304.41
300.734
300.61
298.921
300.781
300.549
299.97
300.549
299.954
299.999
300.012
300.718
300.839
300.704
300.8
300.215
299.404
300.506
300.215
300.554
300.541
300.543
300.094
300.625
300.431
300.327
300.039
300.077
299.253
300.209
300.768
300.234
300.579
299.975
300.555
299.91
300.548
300.36
300.86
299.98
300.82
300
299.15
301.357
300.536
300.782
300.153
300.567
300.495
300.661
301.133
300.113
300.254
300.593
300.384
300.682
299.952
299.879
300.743
300.759
299.765
300.056
299.892
299.897
300.457
299.871
299.917
299.814
299.919
300.199
299.899
300.824
300.509
300.152
300.818
300.12
299.87
299.968
303.357
299.838
299.897
300.456
300.503
300.521
300.146
304.911
300.045
299.914
300.463
300.541
300.591
299.877
299.788
300.686
300.295
300.185
300.697
300.694
300.83
300.983
301.147
305.812
300.168
303.17
300.307
300
300.733
300.638
300.714
300.795
300.881
300.935
299.879
301.16
300.74
300.606
300.886
300.816
300.491
300.683
300.265
300.867
300.019
299.891
300.765
300.572
299.97
300.097
300.746
300.994
300.877
300.629
300.728
300.796
300.283
300.209
300.486
300.217
300.284
301.011
300.666
300.203
300.594
300.503
300.472
299.997
299.831
300.132
301.165
301.161
300.599
301.007
300
301.314
300.675
300.489
301.746
304.363
300.836
300.238
300.688
301.692
300
300.489
301.286
300.609
300.571
300.326
299.962
300.479
300.546
268.163
300.578
301.099
299.962
300.489
299.985
299.9
299.887
300.62
300.631
300.604
300.667
299.965
299.81
300.541
300.992
300.547
300.648
300.032
300.045
300.484
300.569
300.464
300.336
300.464
300.643
300.002
299.862
301.705
300
299.998
302.743
299.729
300.52
299.799
299.788
302.602
299.873
300.062
302.652
300.488
300.909
300.648
300.593
301.434
301.794
299.927
300
299.955
300.629
300.594
300.027
300.331
300.439
300.536
299.889
300.594
300.373
299.988
300.536
300.457
300.382
300.208
300.582
300.689
300.532
302.011
300.638
300.301
300.538
300.568
300.496
300.024
300.58
300.507
300.649
301.566
299.952
300.234
299.984
299.999
300.953
300.46
300.117
300.433
300.571
300.634
299.578
304.381
300.477
300.53
301.941
300.293
300.202
300.461
300.441
300.381
299.951
301.588
300
300.519
300.535
299.948
300.3
300.575
300.617
300.448
299.997
300.171
300.956
299.841
300.508
300.63
299.855
304.493
300.607
300.572
300.478
299.913
305.076
301.491
300.701
301.547
300.299
305.336
300.481
300.831
301.645
299.939
300.487
300.648
300.621
300.638
300.457
304.768
304.417
300.148
300.5
299.825
300.622
300.862
300.583
300.576
300.569
300.456
300
300.492
301.871
300.469
301.901
300.559
300.425
300.547
300.528
300.539
300.521
300.494
300.526
300.556
300.55
299.991
300.697
300.464
300.288
300.278
300.568
299.793
300.712
301.891
300.421
300.454
300.564
299.626
304.493
299.895
299.948
300.671
300.134
299.819
299.823
300.49
299.816
300.507
300.657
300.022
300.54
299.969
300.548
300.827
300.555
299.897
300.532
300.821
300.597
299.808
299.958
299.983
300.019
299.84
300.447
299.944
300.449
300.499
299.816
300.082
305.438
299.966
300.054
300.752
300.424
300.481
300.423
300.37
300.57
300.616
300.357
301.098
300.66
300.474
300.664
300.462
301.326
303.54
299.95
300.276
300.179
300.395
300.52
300
300
299.927
299.888
300.491
299.899
299.918
300.896
300.162
300.45
300.606
301.947
301.025
301.261
300.242
300.563
301.078
301.297
301.397
300.427
299.969
301.056
299.978
299.914
299.956
301.183
301.307
300.418
300.9
299.943
300.627
300.621
300.615
300.634
301.094
300.707
301.103
301.047
300.968
300.68
300
300.565
305.552
299.749
300.122
299.85
299.848
300.773
299.685
299.882
300.699
300.553
299.857
300.444
300.319
300.024
300.078
300.497
300.176
300.195
300
300.575
300.375
300.716
300.589
299.808
299.879
300.475
299.847
300.172
300.735
300.202
300.511
300.702
300
300.455
300.134
300.125
300.103
300.586
300.731
300.71
300.584
300.106
300.723
300.518
300.715
300.457
300.675
300.991
300.506
299.694
300.73
299.764
300.481
299.984
299.895
299.989
299.905
300.502
301.012
300.797
300.454
300.676
300.057
299.885
300.37
304.008
300.473
302.919
300.454
300.659
301.008
300.559
299.817
300.909
301.063
300.848
300.536
250
300.428
299.672
300.519
300.353
300.576
299.906
300.6
300.036
300.848
299.927
300.348
300.567
299.932
301.126
300.077
300
299.838
299.845
300.474
300.402
300.978
300.439
299.948
300.515
299.874
301.66
300.763
301.199
300.88
300.848
299.802
300.17
299.845
300.551
299.794
300.788
300.595
299.983
300
300.415
300
300.629
299.918
300.823
299.846
301.401
299.879
300.647
300.609
299.877
299.945
300.996
300.947
300.475
300.904
300.965
300.977
300.586
301.184
299.825
300.839
300
300
301.71
299.929
300.63
300
300.59
299.821
300.53
299.947
299.886
300.076
299.86
300.801
299.805
299.822
301.011
301.031
300.916
301.357
300.006
300.882
299.956
299.904
300.966
300.216
301.303
300.158
300
300.916
300.679
300.918
300.931
300
300.872
300.168
301.314
299.812
299.848
300
300.963
300.805
300.339
300.883
299.971
300.351
300.432
300.063
299.98
299.837
299.943
299.762
301.072
299.897
300
299.943
300.044
300.993
300.844
301.706
301.396
300.935
300.284
300.57
299.92
299.995
300.919
301.543
300.948
305.399
299.979
299.955
300.134
300.829
301.226
300.132
300.202
300.912
299.8
299.903
301.056
302.012
300.97
301.559
299.962
299.992
300.18
301.107
301.254
300.886
300.023
300.007
300.926
299.791
301.052
300.129
300
299.928
300.565
301.395
301.299
300.147
299.868
301.083
301.33
299.923
300.009
299.862
304.552
300.897
300.537
299.752
300.094
299.862
300
300
299.965
299.994
300
299.909
300.001
299.86
300
299.876
300
300.125
300
300
299.948
300.477
300
300.662
300.349
300
300.041
300
300
300
300
300
300
300.498
299.935
299.987
300.232
299.978
299.938
299.987
300.151
299.933
299.856
299.885
299.764
299.802
299.938
299.877
300.516
300.399
299.912
300.47
300.091
299.682
299.892
299.994
300.022
300
299.909
299.995
300.004
300.574
300.045
299.976
299.94
300.046
299.652
300.561
299.983
299.838
299.899
299.849
300.593
299.727
299.866
299.893
300.454
300.512
299.753
300.469
299.901
299.863
300
300.476
300.649
299.935
299.97
299.765
299.905
300
299.796
299.995
300.454
299.968
300
300
300.459
300.463
300.457
300.753
300
300
300.584
299.906
300
300
300
300.046
300.349
300
300
300
300
300
300
300
299.909
299.971
300
300
300
300.129
300
300.094
300
300.424
300
300
300
299.982
300
300
300
300
300
299.992
300.45
300
300
300.564
300.464
300
300
300
300
300.129
299.862
300
300.708
301.832
300.236
300
300
300.656
299.99
300.349
300
299.944
300
300
299.927
300.064
300.108
300.035
300.007
300
300
299.949
300
300
300
299.939
300.021
300
300
300
300
300
300
300
300.195
299.912
300
299.902
300
300.682
300.733
300.215
300
300
300.546
300
300
300.619
300.243
300
301.416
300
300.378
300.769
300
299.935
299.913
299.923
299.995
299.994
300
300
299.848
300
300
300
300.883
300
301.023
300
300
300
300.066
300.215
300.021
301.268
299.851
299.948
299.923
299.995
300.052
301.071
300.773
300.498
299.835
300.063
300
300
300.464
300.838
299.843
300.404
300
299.893
300.794
299.847
299.985
299.975
299.893
299.971
300.029
299.851
300.573
300
300.832
299.919
300
300
300.25
300.521
300
299.998
300.028
300
299.872
300
299.992
300.117
299.801
299.912
299.997
300
300
299.904
299.899
299.998
299.953
300.129
299.983
299.949
299.89
299.96
299.912
299.956
300.093
299.992
299.997
299.913
299.792
299.966
301.357
299.812
299.857
299.955
300
300.003
299.971
299.939
300
299.98
299.903
299.958
300.91
300.011
300.171
300.968