/*--------------------------------*- C++ -*----------------------------------*\
| =========                 |                                                 |
| \\      /  F ield         | OpenFOAM: The Open Source CFD Toolbox           |
|  \\    /   O peration     | Version:  2312                                  |
|   \\  /    A nd           | Website:  www.openfoam.com                      |
|    \\/     M anipulation  |                                                 |
\*---------------------------------------------------------------------------*/
FoamFile
{
    version     2.0;
    format      ascii;
    arch        "LSB;label=32;scalar=64";
    class       volVectorField;
    location    "0.3";
    object      U;
}
// * * * * * * * * * * * * * * * * * * * * * * * * * * * * * * * * * * * * * //

dimensions      [0 1 -1 0 0 0 0];

internalField   nonuniform List<vector> 
32842
(
(0.00212774 -0.0371334 -0.229823)
(0.584104 0.0169361 -0.338011)
(-9.68396e-12 -5.13669e-12 -4.44754e-11)
(4.82289e-13 5.09101e-11 -2.21834e-10)
(2.94351e-13 1.20754e-12 4.47551e-13)
(9.38965e-08 -4.89887e-09 -4.11217e-07)
(-46.9582 -7.13889 19.9711)
(6.4858 -11.517 3.89911)
(-8.29898e-13 -8.39633e-14 6.59561e-13)
(-1.63e-07 -7.97441e-06 -3.44464e-05)
(11.4807 25.7017 -17.3944)
(3.78793 -18.7904 7.41441)
(-0.0248557 -0.0157836 -0.083134)
(-2.93983e-13 -1.32246e-12 -6.78728e-14)
(2.75601e-13 5.48824e-13 -1.1376e-13)
(0.191141 -0.490916 0.191515)
(-0.000915088 0.00146095 -0.00597779)
(1.06743e-06 -2.55412e-07 -1.12923e-06)
(0.0170657 -0.0162432 -0.0513447)
(-8.38218e-13 1.24947e-12 -9.92348e-13)
(6.90979e-13 -1.01848e-12 -7.72305e-13)
(0.00243053 -0.00612737 -0.0092596)
(-3.22395e-13 -3.52687e-13 -1.39255e-12)
(3.13194e-13 1.28571e-12 -9.15133e-13)
(0.00332078 -0.00434278 -0.0126461)
(5.07193e-10 2.7014e-10 -8.02246e-10)
(5.94472e-09 2.52049e-09 -6.65638e-08)
(6.31115e-13 -8.75073e-13 -6.90155e-13)
(20.1887 -1.14293 3.58993)
(0.0316043 0.101056 -0.363376)
(19.3913 -1.71923 3.67854)
(5.44266e-13 -8.78647e-13 1.42807e-12)
(1.61898 -19.1987 -3.61097)
(0.0629858 -0.0755092 -0.288651)
(1.67479 -18.8837 -5.14315)
(2.28242 -5.28689 -4.9455)
(0.00200723 -0.0324218 -0.121003)
(-0.22353 -0.102093 -0.418378)
(0.0352158 -0.021728 -0.149358)
(0.164711 -0.0341711 -0.226766)
(8.52392e-10 -4.97245e-10 -6.82947e-09)
(1.17519e-12 9.54965e-13 -3.8263e-12)
(1.48591e-12 -1.10441e-12 -5.15592e-13)
(9.113e-13 1.84875e-12 -6.37586e-13)
(0.150098 0.177085 0.236903)
(0.0528862 -0.10265 -0.382892)
(-15.9567 0.618581 2.63891)
(0.0765282 0.194064 0.196034)
(-1.52705e-12 2.98981e-13 -7.5853e-13)
(-19.9695 4.62989 0.68027)
(-1.60781 -21.9755 -1.53308)
(3.07745e-13 1.35721e-13 -9.4798e-13)
(-0.0299001 0.116969 -0.434337)
(15.7575 -0.38359 1.87065)
(2.75995e-12 -2.03458e-12 -1.02001e-12)
(1.17679 1.80218 -0.0617476)
(2.25439e-10 2.38481e-10 -6.17354e-10)
(4.82752 23.1607 -1.73904)
(1.45068e-12 1.28756e-12 7.88164e-13)
(-2.74744e-12 -3.72948e-13 -8.5676e-13)
(-6.9848 -3.85071 -4.94708)
(0.048217 -0.126063 -0.0343778)
(-8.38593e-14 3.07567e-13 7.17487e-13)
(-4.01841e-13 3.70319e-13 -3.52377e-13)
(-0.215678 0.0504311 -0.511228)
(-28.4004 -3.08544 -3.85443)
(1.41622e-12 1.67887e-12 -1.39771e-12)
(0.0631912 -0.159787 -0.258727)
(1.87291e-12 -1.08046e-13 -6.78808e-13)
(0.672391 0.231455 0.573777)
(6.25824e-13 1.0064e-12 -4.40121e-13)
(-2.02023 1.32942 0.186146)
(1.83087e-13 -7.94049e-13 -5.2276e-13)
(-1.64116e-13 3.58845e-13 -3.55608e-13)
(-1.62556e-12 1.09962e-12 -1.35109e-11)
(0.11704 0.147181 0.386226)
(23.3367 -2.04193 1.34828)
(1.74931e-12 1.21193e-12 -1.68261e-11)
(-1.8876e-05 -7.29811e-05 -0.000224119)
(-1.10099 -2.50111 2.11708)
(2.36468e-12 4.93971e-12 -4.64108e-12)
(2.7019e-12 8.23293e-12 -6.5371e-11)
(2.87987e-12 -4.43681e-12 -5.33494e-11)
(8.69125e-13 9.95569e-13 -6.12525e-13)
(1.41082e-12 -6.73669e-13 -7.58219e-13)
(1.67693e-12 4.1932e-13 -9.01643e-13)
(3.88166e-13 8.1716e-14 -9.70832e-12)
(0.498223 -0.0336116 -0.718044)
(-0.811608 -16.7709 3.32959)
(-2.01527e-07 9.00193e-07 -4.38462e-06)
(-9.02965e-05 -0.000149856 -0.000332989)
(-2.97268e-10 6.89653e-10 -1.44976e-09)
(-11.0557 1.71526 1.70987)
(4.70794e-13 -2.20508e-13 1.38544e-12)
(1.86184e-10 3.64895e-10 -1.53189e-09)
(0.109069 -0.161256 0.168684)
(7.74731e-05 -0.000261634 -0.000280423)
(1.77742e-13 1.07376e-12 -3.87077e-13)
(1.13503e-12 7.70599e-13 1.45275e-12)
(-9.93343e-14 3.88134e-13 1.49586e-12)
(-7.17689e-13 -2.67634e-14 1.30523e-12)
(0.0544655 -0.0575382 -0.0898924)
(-0.429038 -0.12775 0.0107402)
(6.75364 1.54251 2.43302)
(-0.000392084 -0.000335559 -0.000689342)
(-0.0879004 -0.117575 0.000423971)
(-1.45754 20.2604 0.859774)
(-1.10804 0.800972 -0.105453)
(-0.0514991 0.0838716 0.323127)
(-0.350957 0.640128 0.922795)
(6.83631e-06 -4.18543e-07 -3.80404e-06)
(2.24444e-06 -2.4441e-05 -8.82679e-05)
(4.80425 -20.4419 -9.06575)
(-2.38294e-07 6.11094e-07 -6.15006e-06)
(0.0727972 0.717651 -0.506661)
(2.79208e-13 4.38992e-13 1.91127e-12)
(8.11151e-14 2.93317e-13 1.30959e-12)
(1.94583 -1.62921 -5.02671)
(-0.304519 -0.00992689 -0.361704)
(-0.339613 -0.148133 0.42061)
(-4.24138e-05 8.58896e-05 -0.000149757)
(-4.31137e-06 -9.20442e-06 -1.2929e-05)
(1.81876 18.3112 0.569383)
(-7.7444e-11 -1.29455e-12 -6.9005e-10)
(0.0866275 0.0942476 0.828332)
(6.35861e-09 -2.26829e-09 -2.26337e-08)
(0.00650184 -0.056304 0.0189271)
(0.0594864 0.0339897 -0.297325)
(-1.31472 13.6792 2.24623)
(2.04948e-11 -1.48726e-10 -2.60635e-10)
(-4.46099e-12 5.37984e-12 -1.32849e-10)
(-1.03373 -0.205748 0.280495)
(-0.185746 0.219122 0.0211176)
(-0.0518472 -0.0508653 -0.187564)
(0.169199 0.00573122 -0.489088)
(-0.414445 0.423194 -0.411183)
(-1.70845 -1.03757 1.34599)
(1.6882 3.81057 -0.582596)
(0.237487 -0.0915821 0.383186)
(-0.0257455 -0.132625 0.0116713)
(0.044297 -0.0094744 -0.0794491)
(-0.157909 0.0244927 -0.286302)
(7.29749e-14 2.59596e-12 1.20698e-12)
(-2.2419 -0.903072 -0.127275)
(0.247579 -0.147239 -0.316054)
(0.00930556 0.0908494 -0.275747)
(18.7887 0.876872 -2.2283)
(0.0361235 0.0720278 -0.350699)
(6.20218e-13 3.94494e-13 -5.38135e-13)
(0.000612126 0.000656022 -0.00307845)
(-0.151341 0.894174 -0.143979)
(-0.265215 0.232914 1.3235)
(0.000858397 -0.000690653 -0.00227156)
(2.56556 11.5912 1.97907)
(-0.525485 0.976086 0.436527)
(-7.83515e-13 3.54907e-13 -2.32289e-12)
(-1.30595e-12 -7.09625e-12 -1.02911e-10)
(-0.09475 -0.0408526 -0.395232)
(-0.0305767 0.091679 -0.283131)
(7.90363e-07 -1.74104e-06 -3.8642e-06)
(0.104999 0.0121687 -0.361172)
(-4.12986e-12 5.79776e-13 -1.67968e-11)
(-3.96454e-13 1.81927e-12 -2.0792e-13)
(1.72885e-12 6.16647e-12 -7.16531e-12)
(0.00571439 1.08375 -0.683251)
(0.0484194 0.0301761 -0.291642)
(-3.18816e-12 -1.00157e-12 -9.68376e-12)
(-0.00454974 -0.0100823 -0.127457)
(0.16164 -0.0697777 0.110312)
(25.2514 5.1527 5.71523)
(1.02331 -1.10185 4.05522)
(0.0691859 -0.0174086 -0.26832)
(-1.81096 -0.872096 4.14558)
(-3.50953e-13 5.49541e-13 -3.45686e-12)
(1.62985e-14 1.9528e-12 3.47346e-15)
(-1.05924 0.445637 2.112)
(0.103494 0.0379107 -0.123167)
(-0.511531 0.0503776 0.199999)
(8.69628e-13 5.50394e-13 2.78595e-13)
(-7.98975e-06 -4.83625e-06 -4.00607e-05)
(-0.118403 0.00015523 0.0909506)
(-0.0109706 0.00560547 -0.0158146)
(0.000884193 -0.00702609 -0.0124381)
(2.3093e-10 -1.5525e-09 -6.89575e-09)
(1.04614e-12 -1.41667e-12 6.66252e-13)
(-0.00540714 0.00337055 -0.0150326)
(0.0865873 0.235576 0.283987)
(-0.000990306 -0.000122973 -0.00112262)
(0.341553 0.0899003 -0.151903)
(-0.0103066 -0.0230173 -0.0623451)
(-0.00949717 -0.0120369 -0.021293)
(0.584303 0.0183649 0.383245)
(-1.29157e-12 -1.51e-12 -3.83428e-12)
(-9.90874e-13 6.0284e-13 -1.18974e-11)
(1.83387e-12 1.44974e-12 1.33589e-13)
(-0.125092 0.08542 -0.192987)
(0.0732007 0.130942 0.41058)
(-0.118309 -0.00604803 -0.297571)
(1.16399e-09 -4.79959e-10 -1.41382e-09)
(-0.000170234 -8.26734e-05 -0.000361353)
(-0.217508 -0.0861453 0.186128)
(0.0355501 -0.0733104 -0.251095)
(-0.918312 0.951091 0.60398)
(-11.7502 -0.782669 1.2082)
(3.68693 23.5092 -2.21066)
(-0.375618 -0.247327 0.216032)
(-0.156982 0.322988 0.076407)
(1.23748e-11 -3.6272e-12 -5.68687e-11)
(7.93108e-11 1.60379e-10 -2.97677e-10)
(-0.0744377 -0.0803637 -0.361961)
(0.110672 -0.156699 -0.345469)
(-0.0564632 -0.141925 0.394597)
(1.19697 1.91584 4.07145)
(0.885724 1.39033 3.83543)
(-0.00129726 -0.000828539 -0.00586997)
(-1.48183e-13 4.97129e-13 1.03978e-12)
(-0.00194568 0.0292396 -0.333328)
(-0.164108 -0.0797993 -0.161872)
(0.00767961 -0.122384 -0.677316)
(0.105969 -0.762638 0.358775)
(-1.98273 -1.28469 -3.76534)
(-2.57895e-09 2.28932e-09 -3.84821e-09)
(-1.80293e-07 4.79817e-07 -2.44168e-06)
(0.000967948 0.0332155 -0.518986)
(-0.0414718 0.0887053 -0.34343)
(-0.148147 -0.217139 -0.52554)
(2.79751e-13 3.99351e-14 -3.64311e-13)
(-1.83818e-13 1.42539e-12 -5.79218e-13)
(0.143743 -0.242707 -0.306739)
(0.573885 -14.3881 0.765279)
(-2.71489e-06 5.51404e-06 -1.28359e-05)
(1.52089e-05 -5.55423e-06 -6.16149e-05)
(-0.148865 -0.084336 -0.180162)
(3.23674e-10 -4.40749e-10 -1.10341e-09)
(-2.38856 -4.36835 6.15505)
(2.35955e-08 7.33994e-08 -5.43701e-07)
(-3.91321e-08 4.10002e-07 -9.20067e-07)
(-0.703621 -0.315182 0.354366)
(-0.016698 0.0141001 -0.13034)
(-5.27441e-13 3.28424e-13 -2.20705e-12)
(0.243372 18.045 0.0452806)
(-0.000200263 0.00263096 -0.030685)
(-0.00934331 -0.0642878 -0.38371)
(12.7913 2.31396 -0.372636)
(0.283943 -0.047019 0.21865)
(-0.0336317 0.0119646 -0.0860375)
(2.20791e-12 -2.9404e-12 2.50708e-12)
(-2.82933e-08 -2.25995e-08 -4.29976e-08)
(-6.33457e-09 1.14074e-08 -1.57784e-08)
(0.00180414 0.000409965 -0.00409296)
(1.07561e-13 5.68803e-13 -1.9217e-13)
(1.28434e-08 -1.29887e-09 -5.60555e-08)
(0.290672 0.884779 -0.629255)
(3.0784e-05 1.03326e-05 -0.000191263)
(-0.108937 0.0351579 0.0588512)
(4.24509e-08 -6.56309e-09 -2.08934e-07)
(-0.00731132 0.00787016 -0.045473)
(1.17417 0.817952 2.74628)
(-0.00392127 0.00223165 -0.00535528)
(0.100109 -0.123859 -0.438433)
(2.34239e-07 -1.48512e-08 -4.73221e-07)
(7.24491e-13 1.39943e-13 5.19968e-13)
(-2.5706e-13 -1.07074e-13 1.38466e-12)
(1.61803e-09 -5.52716e-09 -1.52905e-08)
(-2.2599e-08 1.54523e-09 -8.67692e-08)
(-2.86373e-08 4.53941e-08 -9.43003e-08)
(-7.07591e-06 -1.40289e-06 -1.10389e-05)
(0.00384636 -0.0427315 -0.056647)
(-0.0354701 0.0426739 0.00699093)
(-8.51905e-14 -1.76515e-13 9.28551e-13)
(1.44262e-07 8.72264e-07 -2.28146e-06)
(-2.76479e-09 1.95089e-10 -7.77101e-09)
(-2.23773e-07 1.32652e-07 -1.01205e-06)
(7.94208e-05 -6.54813e-05 -0.000197804)
(-1.3208e-07 6.03445e-08 -2.60687e-07)
(0.925234 -1.93978 3.60873)
(0.0143659 0.002744 -0.332718)
(0.119637 -0.124592 0.137044)
(1.76696e-11 -4.23424e-10 -1.61419e-09)
(0.0130495 0.104339 -0.448372)
(-4.25014e-06 -5.92543e-07 -9.88646e-06)
(6.25912 4.69901 -3.52399)
(22.4175 -0.686993 0.236648)
(-1.57187e-12 -3.1921e-14 -9.47813e-13)
(-0.10474 -0.118624 -0.276168)
(-0.0344743 -0.0540862 0.552259)
(5.26744 6.19976 -2.49429)
(6.65156e-13 4.23137e-13 -5.29367e-13)
(-9.55918e-09 -2.07658e-08 -3.16841e-07)
(-1.43526e-12 3.62865e-12 6.24883e-13)
(19.0266 10.203 -1.15155)
(3.66055e-13 2.39573e-13 4.3971e-13)
(7.30828e-13 4.87516e-13 -6.00737e-12)
(-1.48205 10.1002 4.00734)
(2.28815 19.6623 -1.34029)
(-0.42071 -0.48878 0.534021)
(1.56657e-12 -3.09376e-12 -7.352e-12)
(-7.8751e-06 -1.45693e-05 -4.8781e-05)
(-0.140161 0.0762778 -0.147912)
(-2.64311e-14 -2.36921e-13 -1.93674e-12)
(-68.7607 24.3079 2.79171)
(-1.59477e-06 4.28844e-07 -5.4809e-06)
(0.000176688 0.000399016 -0.00179323)
(-0.000204172 -0.000248895 -0.000903339)
(5.07239e-12 1.99275e-12 -4.88467e-11)
(-6.34648e-13 -1.104e-12 1.32812e-12)
(-2.83449e-13 1.11279e-12 5.10149e-13)
(-7.47866e-13 1.11377e-12 8.11898e-14)
(0.16366 0.162285 0.383716)
(2.25943e-05 -7.11186e-06 -4.93179e-05)
(0.000468022 -0.000188714 -0.00417833)
(1.13578e-12 8.43913e-13 -5.71295e-13)
(-1.02703e-13 7.0125e-13 1.09144e-12)
(-0.000105541 -9.31754e-05 -0.00021381)
(5.02138e-13 -1.01087e-12 1.75411e-12)
(-0.00123569 -0.00138713 -0.00368638)
(0.183189 0.150726 -0.315062)
(-2.63024 -0.457683 5.16218)
(-8.86377e-07 0.000100824 -0.000138573)
(0.0657639 -0.0816444 -0.405816)
(0.179601 0.271201 -0.657623)
(1.21527 -20.2919 -0.596571)
(-0.000217333 -0.000345422 -0.000785031)
(2.49838e-12 -2.36682e-13 4.65944e-14)
(8.29198e-13 1.47227e-12 -2.23734e-12)
(-0.000163697 -2.94578e-07 -0.00174535)
(-0.0252168 0.150754 -0.451181)
(-4.11065e-13 -6.86892e-13 1.40448e-13)
(-0.0273747 -0.13518 -0.258351)
(4.20186e-13 9.04104e-13 3.32211e-13)
(-0.0662427 -0.0576243 -0.225489)
(6.79538e-13 -1.02044e-12 5.11153e-13)
(2.06763e-12 -4.38514e-13 -2.17184e-12)
(1.1248e-12 1.07674e-12 -4.05666e-13)
(0.0591487 -0.0232087 -0.0608158)
(-9.46883e-11 -2.22566e-11 -4.09543e-10)
(-7.97077e-13 -6.31068e-13 -8.25723e-13)
(7.04256e-13 6.97313e-13 5.34984e-13)
(5.55206e-13 4.37314e-13 1.36779e-13)
(0.00719058 -0.00439286 -0.0147441)
(-0.0409435 -0.148072 -0.170423)
(-0.314678 -0.125485 -0.345858)
(-0.016987 -1.02025 1.05476)
(-5.23991e-13 -2.5886e-13 -1.94207e-12)
(3.66707e-13 5.27498e-13 -7.9605e-13)
(-3.40751e-13 -1.34447e-12 1.27396e-12)
(8.07599e-10 7.87416e-10 -1.41827e-09)
(8.49641e-13 4.32678e-13 -3.37202e-13)
(-9.30131e-13 5.20049e-13 5.8351e-13)
(1.45815e-13 -9.62984e-13 1.7319e-13)
(0.0267385 0.0388095 -0.142094)
(1.9413 8.18231 2.42384)
(-0.0719125 0.240153 -0.289805)
(6.13269e-13 -6.44813e-13 -1.63254e-13)
(6.31053e-06 -9.83024e-06 -1.34957e-05)
(-0.119705 0.0235047 -0.219432)
(-0.0284936 0.0544483 -0.185067)
(0.111853 0.127266 -0.318212)
(-5.44675e-05 -7.45003e-05 -0.00018209)
(0.00972852 -0.12023 -0.428173)
(1.99938e-12 -8.09166e-13 -1.26351e-12)
(-1.24999e-12 2.41183e-13 7.82976e-13)
(-0.085999 0.0593639 -0.216885)
(-1.1402 19.8968 0.00476239)
(8.1008e-08 -7.74802e-11 -4.36833e-07)
(8.14236e-13 -3.89888e-13 4.76876e-13)
(-4.74881e-13 1.08727e-12 1.39106e-12)
(1.10892e-12 1.22338e-12 -2.8713e-13)
(0.119056 -1.69867 -0.509222)
(-1.68674e-12 4.39721e-13 2.73834e-13)
(-7.49718e-12 -3.93151e-12 -5.42871e-12)
(6.98215 2.46783 3.40567)
(-0.0550066 0.036969 -0.112195)
(0.00660537 0.157721 -0.316984)
(4.30517e-13 -9.4552e-13 4.55533e-13)
(-0.062835 0.0341781 0.120703)
(0.06534 -0.0686327 -0.444096)
(-3.07475e-13 -5.10198e-13 4.14932e-13)
(-0.154721 1.37951 0.224135)
(-6.66318e-14 4.00339e-13 -1.41571e-12)
(-0.125373 0.279616 0.00476011)
(2.54141e-06 3.8191e-06 -5.36118e-06)
(0.209088 0.000795206 -0.611021)
(0.0199084 0.162851 -0.402633)
(-0.0872139 -0.146581 -0.082656)
(-2.31932e-13 7.40816e-13 8.52992e-13)
(7.47413e-14 4.90779e-12 -2.74294e-11)
(-5.83299e-10 -6.76199e-09 -1.39669e-08)
(-4.53071e-10 1.54643e-09 -1.06869e-08)
(-0.00483328 -0.0230826 -0.126682)
(0.00253416 0.00493521 -0.00642822)
(-0.0913297 0.168192 -0.351314)
(-0.00133025 4.06961e-05 -0.00180261)
(-4.10477e-10 -4.92699e-10 -1.08576e-09)
(0.149477 0.0133166 -0.211055)
(2.61774e-13 -2.13824e-13 -1.14985e-12)
(-0.0808063 -0.00566554 -0.596594)
(0.0265855 0.164199 -0.42664)
(0.0779408 0.116293 -0.507944)
(-0.4029 0.121098 0.857857)
(-0.327922 -2.2545 2.48181)
(-1.3099e-12 -2.80322e-13 3.1312e-12)
(0.262841 -0.151359 0.0905984)
(-0.235969 0.210235 -0.626591)
(0.551421 3.24565 4.82548)
(0.158782 0.228674 -0.247595)
(-0.0529806 -0.133534 -0.239577)
(0.0257534 -0.00491324 0.433544)
(-1.94573e-10 1.20261e-09 -1.64065e-09)
(0.0107353 -0.0532099 -0.124148)
(-0.0923913 0.0568269 0.22134)
(0.0375029 0.0356123 -0.0747785)
(9.27204e-13 -1.61777e-12 7.94641e-13)
(-0.0874585 0.0239279 -0.407219)
(0.000420792 -0.00102416 -0.0217173)
(-0.0610849 0.0809676 -0.319964)
(-0.123701 0.0236533 -0.407711)
(0.128941 0.0779951 -0.410394)
(0.0770413 -0.111728 0.0435739)
(4.39499 -0.577295 2.16232)
(-0.275844 0.144927 -0.241486)
(0.0184501 -0.0737401 -0.0440819)
(-4.15894e-11 2.61198e-11 -6.89734e-11)
(0.0104929 0.0109255 -0.0970714)
(29.5772 7.76253 -5.23507)
(-1.38708e-10 7.89566e-11 -2.42116e-10)
(-0.0714126 -0.0222675 -0.409828)
(-8.96151e-13 -2.86104e-12 -2.25207e-12)
(-0.364647 -0.468904 -0.786859)
(2.87229e-13 4.06143e-13 -2.23422e-12)
(-0.0474474 -0.0910238 0.380664)
(5.69599e-13 2.01134e-13 -1.6567e-13)
(3.08306e-10 -3.1356e-10 -1.76596e-09)
(0.249998 0.269345 0.109543)
(7.7805e-13 2.13565e-13 -5.14004e-13)
(-1.46965e-09 -1.77818e-09 -7.54374e-09)
(0.0398672 -0.187107 -0.369399)
(18.8233 6.49282 -2.38991)
(0.382924 19.7509 -2.14109)
(7.27808e-09 5.14064e-09 -1.18458e-08)
(-3.89218e-06 5.14382e-06 -1.7039e-05)
(-19.5898 -2.7492 -0.000128219)
(0.195637 0.11756 -0.0282203)
(1.48515e-12 1.2047e-13 9.90209e-13)
(-0.000711151 0.000885261 -0.0111491)
(-0.143037 -0.239807 0.446469)
(1.02257e-12 1.27972e-12 -5.40876e-13)
(1.34092e-14 5.1723e-13 -4.43076e-13)
(-3.3314e-12 7.69562e-14 -1.65129e-11)
(-1.57298 1.29885 -1.61469)
(-3.74773e-14 1.0802e-12 -7.93952e-14)
(-0.0171947 -0.034209 0.105721)
(-0.157542 0.290864 -0.27642)
(-1.52601 15.585 -1.24963)
(-7.07956e-13 4.18749e-14 -1.18101e-12)
(-0.0661827 -0.25719 -0.304253)
(0.00537324 -0.151285 0.285478)
(-7.28572e-15 -1.02566e-12 6.99029e-13)
(-0.357093 0.0965576 0.307218)
(0.0577439 0.0349339 -0.543254)
(-2.10361e-13 4.11006e-13 -4.62835e-13)
(-9.97602e-13 -7.3103e-13 1.40866e-13)
(3.43549e-12 -9.766e-13 -7.32577e-12)
(1.0909e-12 -4.8995e-13 1.75332e-12)
(6.96557e-13 1.31223e-12 -8.8772e-13)
(-0.552603 0.106685 0.134073)
(0.0136784 -0.0685383 -0.324154)
(-3.94724e-15 -1.10942e-12 4.34488e-14)
(0.107968 0.00926546 -0.126024)
(0.545756 0.930061 -0.231908)
(-4.03339e-14 5.2786e-13 8.21898e-13)
(-2.33221e-13 1.24384e-12 2.10688e-12)
(1.79034e-12 -7.62679e-13 7.80285e-13)
(7.92706e-13 2.61262e-13 -9.1908e-13)
(-0.2156 0.0329029 -0.346443)
(-8.47741e-13 2.20189e-14 -9.48501e-13)
(3.66378e-13 2.45424e-13 -6.56853e-14)
(1.17059e-12 8.35852e-13 -3.43787e-12)
(2.27224e-13 1.65582e-12 9.02132e-13)
(-2.36834e-12 -2.24188e-13 1.59244e-13)
(1.62826e-12 2.68738e-14 1.05157e-12)
(-5.35117e-13 1.31806e-12 -1.05379e-12)
(-0.15446 -0.0935526 0.280692)
(-20.0587 0.281258 3.15611)
(-1.08138e-13 1.2328e-12 -1.7674e-12)
(0.000108481 9.75823e-05 -0.000321672)
(1.59587e-13 3.01799e-13 -1.84839e-12)
(-1.38315e-12 6.80141e-13 2.61228e-13)
(-0.0662575 0.437208 -0.173737)
(9.5084e-13 9.22857e-13 7.58462e-13)
(0.126128 -0.0135147 -0.0891408)
(0.299511 0.947629 -0.208567)
(5.85888e-13 1.4514e-12 -3.341e-13)
(-0.941098 -0.662404 -0.185133)
(0.0818823 0.0265448 0.0397968)
(9.90164e-13 -3.65639e-13 -1.1574e-12)
(-6.24665e-06 2.53307e-06 -1.50632e-05)
(-2.82829e-13 9.57476e-14 -1.53086e-12)
(1.13013 1.12802 0.572869)
(0.121662 0.00723469 0.237213)
(0.0277499 -0.0631989 -0.108487)
(2.44903 4.86864 3.55537)
(-0.258804 -0.638734 -0.0384292)
(2.52327e-13 -1.33894e-13 -1.0016e-12)
(-0.046231 0.0521056 -0.020877)
(1.33626e-12 3.00474e-13 1.58907e-12)
(-4.32118e-13 -6.63275e-13 -7.71237e-13)
(7.42977e-07 -9.35115e-07 -2.88718e-06)
(3.39403 3.80447 2.79629)
(0.16894 -0.0270263 -0.693955)
(-0.0193807 -0.0805674 -0.106956)
(5.6063e-13 -1.42344e-12 -1.79996e-12)
(0.179162 -0.189829 0.331569)
(0.197317 0.0452306 -0.509085)
(0.0384069 -0.0456099 -0.129852)
(-2.35029e-14 -9.31465e-13 -5.58217e-13)
(0.153268 0.0871173 -0.372001)
(-0.299868 0.00414356 -0.248863)
(0.00650145 7.67038 2.61029)
(-0.589443 11.2992 4.94323)
(-7.76699 15.9362 -0.497338)
(4.42727 1.30608 1.59992)
(0.503845 4.16936 4.52181)
(-0.113195 1.50485 3.20885)
(-0.614884 11.5732 0.384778)
(0.166011 0.127041 -0.263358)
(-0.105387 0.0795192 -0.452956)
(0.00255901 0.00320858 -0.00323581)
(-0.305106 -0.0833273 -0.425492)
(1.79594e-12 -2.9982e-12 1.19079e-12)
(22.0974 -0.949161 1.60928)
(-2.95509e-13 -3.55671e-13 8.89445e-13)
(-1.35483 0.513764 0.503945)
(0.0453915 0.211559 -0.441695)
(-4.63704e-05 -1.50896e-06 -0.000339518)
(3.7855e-12 7.15048e-14 1.93218e-13)
(-13.628 2.24215 -3.16288)
(4.189e-12 -4.61909e-12 -1.63418e-11)
(7.74698 -5.33296 1.42009)
(-15.6223 -2.21608 0.390024)
(-0.0742506 -0.123281 0.321854)
(-0.093563 4.4958 1.09676)
(0.65865 0.821408 0.28521)
(0.539459 1.50135 3.41667)
(0.0109504 -0.00451393 -0.0430081)
(-2.52385e-13 -2.74281e-13 -3.80543e-13)
(-0.0762792 -0.24831 -0.0682749)
(-2.57494e-06 -3.13358e-06 -7.25663e-06)
(2.99016 4.05421 4.89376)
(2.46225e-13 1.29565e-12 -2.70376e-13)
(8.37237e-13 -1.74963e-12 1.60647e-13)
(-0.0346644 -0.0665095 -0.297761)
(2.29231 20.3311 -0.347649)
(0.0260052 -0.0108922 -0.037437)
(-0.167477 0.0539446 -0.254789)
(0.0986249 -0.0869202 -0.433021)
(-0.000170049 0.00108895 -0.00182558)
(-5.31625e-09 -2.71331e-09 -6.78535e-09)
(1.02284 18.3976 -1.19947)
(0.334035 20.2683 0.705559)
(5.3778e-13 8.55419e-14 8.02786e-13)
(1.00962e-12 9.31766e-13 -2.78935e-12)
(-0.320204 0.336518 0.564478)
(-0.00776768 -0.00227935 -0.106545)
(-0.543122 21.2883 -0.981088)
(2.91007e-13 -1.3422e-12 2.49818e-13)
(0.057421 -0.32694 -0.302666)
(-8.04783e-05 -3.93932e-05 -0.000223984)
(-1.46227e-12 -4.05639e-13 4.76193e-13)
(-6.5903 17.8836 -1.72674)
(-4.67045e-06 -5.31465e-06 -1.2519e-05)
(-0.00206469 -0.0350706 0.0337001)
(-8.73117 16.0928 5.57638)
(-5.92743e-13 7.13126e-13 -1.33379e-12)
(-5.25825e-10 -2.02126e-10 -1.75506e-09)
(0.0429482 5.63358 -0.161538)
(-0.205061 -0.0239719 -0.233482)
(0.150882 0.229894 0.124217)
(-3.07304 15.4995 -3.18965)
(-4.02455e-14 -7.93998e-13 -1.28871e-12)
(4.47061e-13 -6.20991e-14 -1.06687e-12)
(-1.06996e-12 7.70848e-14 -6.01878e-13)
(0.654416 1.28493 2.45277)
(-1.08284e-06 -4.34615e-07 -3.93931e-06)
(2.18472e-12 1.88651e-12 1.93748e-12)
(2.02817e-12 4.19221e-13 -1.22451e-13)
(0.0323355 -0.103691 -0.288353)
(-0.00185098 0.152277 -0.300398)
(-0.127523 0.258967 -0.334776)
(1.76801e-12 2.04388e-12 -4.39662e-12)
(-0.000448437 0.00107044 -0.00414732)
(2.12717e-12 -1.03539e-12 1.28171e-12)
(-0.0387848 -0.0238282 -0.39277)
(-2.61041 15.9364 -1.89009)
(-3.89194e-10 -7.23981e-10 -1.18032e-09)
(-0.144837 0.0155585 -0.281702)
(-3.18584 12.5761 2.90049)
(-0.17694 0.100741 -0.262214)
(-1.48012e-12 -1.59829e-13 -3.92982e-12)
(2.18282e-05 -1.45471e-05 -7.12955e-05)
(-2.98303 14.2462 1.2597)
(-3.01805 15.0116 1.32516)
(-1.75913 21.2354 0.231475)
(-0.279227 -0.147984 -0.200828)
(-16.3758 -0.839979 1.46243)
(-4.72737e-12 2.36073e-11 -6.52805e-11)
(-17.8441 -3.69292 2.34549)
(0.779464 0.633035 0.815208)
(-14.9499 -2.00456 0.230818)
(-5.10327e-13 -1.19001e-13 8.86753e-13)
(-1.36439e-06 -9.0142e-07 -5.07033e-06)
(6.79051e-13 -2.02323e-13 -1.88452e-12)
(-1.30565e-13 1.07693e-12 1.11733e-12)
(1.51387e-13 -9.2507e-13 -1.18456e-12)
(-17.3245 1.9297 2.47749)
(2.30055e-12 1.1577e-12 9.19325e-13)
(-0.0203967 0.0752094 -0.204546)
(1.65499e-12 -1.07823e-13 6.24062e-13)
(0.0595485 -0.029926 -0.270956)
(-2.11917e-12 1.53461e-12 -1.37675e-12)
(0.127757 0.196756 -0.394945)
(7.36648e-05 -0.00203894 -0.00859925)
(-0.0312114 -0.149627 -0.156136)
(-19.8674 -0.556853 -3.0427)
(1.21617e-12 2.30232e-12 -3.60635e-12)
(-0.0385165 0.0472611 -0.344329)
(-2.80036e-13 7.9743e-13 9.47867e-13)
(-0.550639 -17.405 -2.08162)
(-21.7578 -0.152044 -1.25311)
(-0.557093 0.915671 0.540798)
(0.236231 0.0256847 0.160999)
(-21.4789 0.601936 -3.14627)
(-1.82685e-06 -3.28882e-07 -3.14788e-06)
(-2.43869e-13 -1.56811e-13 -6.60141e-13)
(0.0335754 -0.0139215 -0.0588891)
(-15.012 -1.03174 3.62343)
(1.62478e-14 3.03959e-13 3.78944e-13)
(-2.29547e-10 3.67775e-11 -3.40632e-10)
(0.0666688 0.0583163 -0.147508)
(-1.40514e-10 -1.01152e-10 -2.81672e-10)
(-24.9323 -1.48906 0.141416)
(5.38607e-13 -3.10034e-13 3.41772e-13)
(8.32907e-13 4.23144e-13 2.90704e-12)
(7.91896e-13 3.94282e-13 -1.73096e-14)
(3.8929e-07 6.65702e-07 -3.791e-06)
(0.346272 -0.161966 -0.0811978)
(-1.90855e-12 5.28503e-13 3.52722e-14)
(-7.07458e-13 7.1318e-13 -7.58343e-13)
(-20.9962 -3.04586 -0.431595)
(-21.0909 -5.68695 2.80986)
(-0.0610384 -0.0417918 0.319107)
(7.95315e-05 7.68202e-05 -0.000613116)
(1.86095e-06 -3.98658e-06 -5.66151e-06)
(-1.23648e-12 -3.70808e-13 -4.50151e-12)
(0.0900625 -0.25404 -0.214642)
(1.02509e-12 2.17535e-12 -1.43063e-12)
(-6.88022e-13 -7.98555e-13 -8.04274e-13)
(-7.46528e-05 -6.76399e-06 -0.000146769)
(2.51288e-13 1.807e-13 1.97085e-12)
(-2.82444e-10 -3.81819e-10 -9.21786e-10)
(16.5059 1.16817 -2.11202)
(25.0938 -0.106161 -1.41469)
(4.46321e-13 9.81323e-13 8.68929e-14)
(0.000167748 9.3279e-06 -0.00126632)
(15.219 1.19394 -1.106)
(-0.193385 0.0759329 -0.248372)
(0.410485 0.179312 1.01203)
(0.103875 -0.0823948 -0.291601)
(-7.09174e-13 -9.16097e-15 -1.57274e-13)
(-0.0300547 -0.000885332 -0.351972)
(-0.124567 0.0589402 0.12942)
(1.12871 0.462899 0.516447)
(0.0570283 0.110276 -0.724524)
(10.2601 -0.726716 -0.825211)
(2.24574e-10 -1.97986e-10 -7.10637e-10)
(23.4292 -1.3225 1.97725)
(-1.19769e-07 6.02504e-07 -1.47349e-06)
(2.77337e-10 -5.29473e-11 -4.01355e-10)
(14.1142 -4.04991 2.03249)
(22.7016 -0.832869 -1.74645)
(-1.0591 0.0972798 2.82652)
(1.58174 1.50016 0.661887)
(-2.83447e-14 6.3287e-13 -6.75626e-14)
(0.000209891 -0.000258199 -0.00100685)
(-1.71659e-13 5.47175e-13 9.75739e-14)
(7.9875e-11 1.24139e-10 -5.0078e-10)
(17.5582 -1.86262 -1.17691)
(1.75966 1.39774 2.12549)
(24.9303 1.52089 -4.78392)
(21.1767 -4.11074 -1.42973)
(-1.15086 -0.161889 0.635158)
(0.544837 0.44323 0.6684)
(25.9519 -1.02844 -3.93046)
(-3.74968e-07 1.14943e-06 -2.40941e-06)
(-17.7602 2.84296 -0.528119)
(0.138722 -0.134213 -0.0611921)
(0.112581 0.164729 -0.357681)
(0.178422 0.276072 -0.221311)
(1.55954 3.18548 6.75537)
(-1.06188e-12 -1.39934e-13 8.80245e-14)
(0.0539039 -0.0066606 -0.0369403)
(2.61663e-07 4.0843e-07 -4.62807e-07)
(-0.00558479 0.00409012 -0.024961)
(0.0662821 0.0157836 -0.111232)
(-2.00338e-12 -1.83233e-12 -3.64153e-14)
(-0.0743394 0.182272 -0.359615)
(8.7709e-13 -1.3667e-12 2.22421e-12)
(-1.47072e-12 1.65901e-12 6.18592e-13)
(0.0571504 -0.0663016 -0.0448781)
(1.21351e-12 1.09219e-12 1.4772e-12)
(0.030657 -0.0440675 0.12635)
(-1.37271e-12 8.98901e-13 -8.6771e-13)
(-0.07197 -0.285818 -0.351009)
(-8.60391e-06 5.92588e-05 -6.65594e-05)
(0.0583587 -0.142425 0.00998238)
(-0.0410451 0.0966525 -0.304395)
(-0.0273531 0.0505835 0.197437)
(5.0466e-09 1.27111e-08 -1.5518e-08)
(0.259182 -0.00716424 0.100789)
(0.176878 -0.00934039 0.211423)
(-0.0298881 -0.000868112 -0.0481826)
(0.0836414 0.0874776 -0.046335)
(-1.76497e-12 1.05747e-12 -1.61895e-13)
(-0.109911 -0.673542 -0.494435)
(0.171909 0.426907 -0.271135)
(-0.0147112 -0.0721398 -0.32305)
(-0.0514679 0.0727704 -0.471188)
(0.208853 0.0317422 0.155055)
(-0.00757946 -0.106146 -0.346377)
(-7.70402e-13 1.98515e-12 -2.8093e-12)
(0.14632 0.325098 -0.384995)
(-2.81969e-10 -3.75971e-10 -3.25974e-09)
(1.45062e-12 -1.16187e-13 5.51613e-13)
(7.58805e-12 6.00533e-13 -1.61537e-11)
(0.0513062 0.0193849 0.0788587)
(0.133989 0.0890066 -0.31164)
(-9.3449e-13 -4.35665e-12 -4.00074e-12)
(0.0625433 0.134833 0.00993117)
(-0.126616 -0.140294 -0.493845)
(-0.0178128 0.00443073 -0.305937)
(0.345415 22.7296 -2.31593)
(-1.0245e-12 -9.94871e-13 -2.91131e-13)
(-0.00290412 0.0519295 -0.195296)
(0.00713965 -0.0189133 -0.0483807)
(1.67484e-12 7.96397e-13 8.02291e-13)
(-1.72732e-12 -1.19295e-12 2.34606e-13)
(1.16161 -0.0128719 0.235332)
(0.0093205 0.0524889 -0.0183631)
(-0.0609539 0.0246319 0.0524727)
(0.122674 0.0783179 -0.258902)
(3.02346e-13 -5.59531e-13 4.19209e-13)
(7.2692e-05 -4.89435e-05 -0.000316113)
(0.0568552 -0.221369 -0.177375)
(0.0288026 0.0278023 -0.0976728)
(-0.0192686 0.121643 0.344976)
(0.0508715 0.00331672 0.243551)
(0.0992857 0.13665 0.204387)
(-9.03062e-09 -3.85135e-09 -1.20917e-08)
(-8.87705e-13 1.75305e-13 3.45581e-12)
(5.85142 6.88029 0.277707)
(2.5642 11.9252 4.33417)
(-0.0936814 0.0665196 -0.533577)
(-0.103201 0.0659644 -0.166404)
(-1.67889e-12 -7.45468e-13 4.00559e-13)
(0.000786458 0.000802751 -0.00209007)
(2.59578e-13 5.6175e-14 -1.0381e-12)
(0.00224598 0.00173509 -0.0465423)
(-0.112235 -0.0575943 0.480588)
(-0.0398299 -0.085526 0.390969)
(0.0230591 0.0221325 -0.0947879)
(25.1233 3.52669 2.35265)
(-1.2423e-12 3.37365e-12 -1.01036e-11)
(0.722124 -0.285499 0.220862)
(3.88551e-13 7.76706e-13 -1.97462e-12)
(-0.00519445 -0.0145462 0.187679)
(0.169461 0.104137 -0.259517)
(0.209887 0.943145 0.962147)
(6.42874e-13 -3.68631e-12 -8.1773e-12)
(0.14515 -0.0998762 0.243831)
(0.178932 -0.206573 0.35562)
(2.67935e-07 3.1163e-09 -2.57193e-07)
(-0.0658382 0.122312 -0.348823)
(3.24226e-05 -2.47695e-05 -0.000251634)
(-0.000830802 -0.0285431 -0.111354)
(-0.00630134 -0.00469487 -0.067246)
(1.17092e-12 5.5171e-13 -5.14848e-13)
(-6.95979e-05 -5.70424e-05 -0.000256887)
(0.0182653 -0.0345445 -0.133029)
(-1.04515e-06 -7.38664e-07 -2.87836e-06)
(0.106385 0.0335772 -0.21247)
(0.000898156 -0.00343896 -0.014193)
(-1.12307e-07 2.5551e-08 -7.44181e-07)
(22.5632 -2.6265 -4.65587)
(-0.113234 -0.0157414 -0.58143)
(0.0376502 -0.0425303 -0.127047)
(-0.349294 22.5899 -3.21652)
(-1.07491e-12 -1.06516e-12 -9.95681e-13)
(-0.0405629 -0.0885632 -0.291212)
(0.0728624 0.302346 -0.52013)
(1.16687e-06 2.0895e-06 -2.72471e-06)
(0.000162696 0.00250598 -0.00664066)
(1.50047e-12 1.5155e-12 -9.91886e-12)
(0.0185121 -0.0394012 -0.14609)
(-0.0170782 -0.035558 -0.0899966)
(0.0620375 0.00281903 -0.104522)
(0.00020439 -0.000293235 -0.00157751)
(-8.6885e-10 -9.52156e-10 -1.98533e-09)
(0.0783517 -0.0325044 -0.248677)
(0.0434624 -0.0749928 -0.0770371)
(-0.0495618 -0.0263528 -0.424771)
(-0.00547795 0.00304947 -0.0189368)
(0.256732 -0.372966 -0.426072)
(2.20897 0.0117371 -0.622141)
(0.00338668 -0.211631 -0.524239)
(0.00620218 0.146018 -0.314955)
(-0.0243186 0.0256184 -0.0437997)
(-2.57774 0.670425 -0.5534)
(-0.0330108 0.254919 -0.33683)
(0.0690112 -0.0693403 -0.253368)
(4.40472e-12 1.45323e-12 -9.71067e-12)
(0.000168098 -9.12322e-06 -0.000294084)
(0.283125 0.00979922 0.474759)
(-8.07144e-05 -0.000528267 -0.00104765)
(0.206163 0.259395 -0.0424767)
(-0.114934 0.0376069 -0.20706)
(-9.15136e-13 1.41777e-13 -6.05942e-13)
(2.33362e-08 7.06482e-08 -1.88277e-07)
(0.0579064 0.0577505 0.0649694)
(-2.50812e-12 -1.00305e-14 -1.10369e-12)
(3.94208e-09 -3.92695e-09 -2.9724e-08)
(0.120497 0.962745 0.84773)
(-0.00253119 -0.00144799 -0.00796755)
(-2.17673e-12 -7.67348e-13 -4.26822e-12)
(-11.2607 16.1941 -3.27579)
(-0.0764019 -0.00558946 -0.225882)
(18.8074 1.06438 -2.86302)
(0.119977 -0.0677528 -0.281956)
(0.0220321 0.142603 -0.246395)
(-0.67754 -0.189267 0.254467)
(0.224423 0.848592 0.899602)
(0.0503411 -0.0683896 -0.461867)
(0.0747276 0.079112 -0.222977)
(-2.18137e-13 2.56936e-12 -1.38498e-13)
(-8.90759e-13 1.21831e-12 2.41706e-12)