/*--------------------------------*- C++ -*----------------------------------*\
| =========                 |                                                 |
| \\      /  F ield         | OpenFOAM: The Open Source CFD Toolbox           |
|  \\    /   O peration     | Version:  2312                                  |
|   \\  /    A nd           | Website:  www.openfoam.com                      |
|    \\/     M anipulation  |                                                 |
\*---------------------------------------------------------------------------*/
FoamFile
{
    version     2.0;
    format      ascii;
    arch        "LSB;label=32;scalar=64";
    class       volScalarField;
    location    "0.15";
    object      p;
}
// * * * * * * * * * * * * * * * * * * * * * * * * * * * * * * * * * * * * * //

dimensions      [1 -1 -2 0 0 0 0];

internalField   nonuniform List<scalar> 
32842
(
101311
101389
101325
101325
101325
101325
96192
96684.8
101325
101325
95372.2
95879.1
101325
101325
101325
100817
101325
101325
101272
101325
101325
101325
101325
101325
101325
101325
101325
101325
95426.9
101325
99793.3
101325
94554.6
101325
94501.7
95097.4
101325
101325
101325
101324
101325
101325
101325
101325
101186
101325
99960.8
101323
101325
94617.5
94534
101325
101325
98674.3
101325
101324
101325
98746.6
101325
101325
95329.6
101324
101325
101325
101324
99291.5
101325
101325
101325
101205
101325
101104
101325
101325
101325
101301
99233.8
101325
101325
99967.9
101325
101325
101325
101325
101325
101325
101325
101331
96911.5
101325
101325
101325
100972
101325
101325
101325
101325
101325
101325
101325
101325
101325
101600
100846
101325
101325
91639.8
101567
101316
101348
101325
101325
100022
101325
101671
101325
101325
101098
101587
101324
101325
101325
95519.5
101325
101407
101325
101325
101325
100424
101325
101325
101409
101123
101102
101212
100760
101276
101231
101323
101199
101325
101325
101325
101227
101262
101325
99878
101325
101325
101325
101411
100974
101325
99865.9
100773
101325
101325
101325
101260
101325
101298
101325
101325
101325
100912
101325
101325
101325
101324
93721.8
101203
101321
101053
101325
101325
101077
101325
101475
101325
101325
101325
101325
101325
101325
101325
101325
101306
101325
101324
101325
101325
101464
101325
101325
101325
101325
101325
101325
101325
101325
101325
101325
101380
98403.8
98764.7
100683
101323
101325
101325
101324
101305
100783
100828
100933
101325
101325
101325
101325
101321
100717
101344
101325
101325
101319
101290
101106
101325
101325
101300
100170
101325
101325
101325
101325
100555
101325
101325
101329
101325
101325
96328.7
101325
101323
99578.6
101294
101325
101325
101325
101325
101325
101325
101325
100706
101325
101325
101325
101325
100973
101325
101325
101325
101325
101325
101325
101325
101325
101325
101325
101325
101325
101325
101325
101325
101325
101325
101224
101325
101325
101325
101323
101325
100917
100823
101325
101291
101387
100892
101325
101325
101325
93791.8
101325
101325
100602
96034.9
101402
101325
101325
101325
101325
92859.7
101325
101325
101325
101325
101325
101325
101325
101325
101325
101325
101325
101325
101325
101325
101325
101325
100878
101325
101325
101325
97193
101325
101325
101325
101325
101324
101325
101309
101325
101324
101325
101325
101325
101325
101325
101325
101325
101325
101325
101325
101321
101378
101325
101325
101325
101325
101325
101325
101325
101126
100722
101244
101325
101325
101325
101325
101325
101325
101324
101325
101325
101325
93521.3
101325
101325
101325
101325
101324
101325
101325
93306.3
101325
101230
101325
101314
101325
101325
101420
101325
101300
101325
101324
101325
101325
101325
101325
101325
101325
101325
101325
101325
101325
101325
101208
101325
101302
101324
101325
100979
100588
101325
101315
101216
100492
100783
101325
101301
101325
101325
101276
101325
101325
101271
101325
101320
101321
101310
101072
78769.6
101061
101325
101325
101325
89310.3
101325
101325
101325
100728
101325
101313
101325
101325
101325
101325
101325
101312
100165
98810.3
101325
101325
97205.6
101324
101325
101325
101320
101325
101325
101325
101468
101325
101325
101201
100612
101325
101325
101318
101325
100854
101321
101325
101325
101325
101325
101325
100742
101325
101325
101325
101570
101325
101325
101325
101325
101318
101325
101325
101325
101325
101325
101325
101325
101315
96629.6
101325
101325
101325
101325
101418
101325
101325
101621
101325
100837
101325
101325
101325
101325
101312
101325
101325
100815
100796
101325
101325
101325
101325
101325
100783
101324
101325
101325
101325
101325
101325
101325
101325
101303
100808
96932.9
98783.1
100858
100958
100984
100638
101325
101317
101325
101321
101325
98184.3
101325
101466
100964
101325
101325
95663.1
101325
83490.6
97304.5
100961
99975.9
101257
101074
101325
101325
101095
101325
100395
101325
101325
101325
94530.2
101325
101325
101312
101325
101325
96041
94595.4
101325
101325
100757
101325
95148.1
101325
101311
101325
101325
99645.6
101325
101325
99049.7
101325
101325
100898
101325
101320
99562.2
101325
101325
101325
101335
101325
101325
101325
101325
101325
101245
101325
101325
101325
101325
99637.4
101325
101183
99426.8
101274
101325
101325
99172.1
99411.5
92878.1
101325
94446.6
101325
95737.4
101537
96492.9
101325
101325
101325
101325
101325
97543.6
101325
101325
101325
101325
101325
101325
101325
101078
98491.8
101325
101198
101325
95346.7
97492.4
101167
101325
96445.3
101325
101325
101325
98749.8
101325
101325
101325
101325
96173.8
101325
101325
101325
101325
101485
101325
101325
96425.5
96603.9
100992
101325
101325
101325
101325
101325
101325
101325
101325
101325
100547
100349
101325
101325
100531
100944
101411
101325
101325
101325
101325
100966
100760
100537
101325
99030.2
101325
101325
99887.6
100074
101056
101315
101325
101325
101325
101325
100145
99387.8
99970.1
100292
101145
101342
100057
101325
96035.4
101325
101325
101155
99195.8
101325
101325
101325
101325
101325
101325
101284
101325
101325
101325
101325
101325
101325
101325
101325
101325
101312
101307
101325
101322
101308
101325
101325
101325
100943
101325
101325
101325
101321
101041
101325
101325
101325
101325
101325
101325
101265
101325
101324
101323
101325
98532.7
101325
101325
101325
101325
101325
101265
101325
101325
101323
101325
101325
101324
101325
101325
101323
101325
101325
101325
99923.8
100194
101325
101325
101325
101325
101325
101325
101322
101325
101325
96968.9
101325
101323
101325
101325
101325
101280
101325
101325
101325
101325
101127
101325
101325
101325
101325
101325
101325
101325
101325
101325
101325
93193.6
101145
101325
99919.8
101325
101320
101042
101325
101325
101325
101325
101325
101325
101325
101325
101324
101325
101321
101325
100767
101307
101316
101307
101325
101223
101308
101324
101325
101325
101286
101325
101208
101325
101325
101325
101288
101325
101325
101144
101325
101325
95053.5
101325
93975.4
101246
101325
100837
100922
101325
101324
101325
101325
101325
96054.5
101325
101312
101325
101325
101300
101325
99960.2
101325
101325
101325
100743
101321
101195
100864
101321
101325
101325
101325
101325
101325
101325
93464.3
101324
101325
101325
101325
101325
101324
101336
101325
101325
101305
101325
101284
101343
101325
101325
101325
100879
101236
101325
101325
101309
93647.5
101325
101401
98638
101325
101325
101322
101325
101325
101325
101325
101325
101325
101325
101325
101325
101325
101448
101325
101325
101325
101325
101325
91565.1
101313
101325
101325
101325
101325
101295
101316
101325
101325
101308
101325
101325
101325
100435
101325
101325
101325
101325
101321
101325
98643.2
99603.3
101325
101165
101325
101325
101325
101325
101325
101325
101325
101325
101325
101325
101318
101325
99483.5
101322
101325
101322
101325
101325
101325
101325
101325
99697.9
99631.4
97376.3
101299
101325
101325
101325
96338
101325
95559
95541.1
96118.4
95629.4
101325
100802
101325
101022
96319.2
101325
100413
101256
101055
101325
101325
93642.3
101324
101325
101325
97208
101325
101325
101289
101325
101324
101235
101325
101214
101325
101325
101312
101096
101220
101219
100776
101209
101287
100935
101324
99661.2
99017.6
101325
101322
101319
101325
101388
101288
101152
101282
101154
100923
100795
99834.7
101325
101325
101325
101325
100769
101058
100841
101325
101325
101325
101325
101243
100786
101344
101325
101318
92152
101241
101227
101325
100997
99856.7
101325
101325
101325
101325
101099
101325
101325
101195
101325
100952
101185
101182
101325
101325
101325
100231
100886
100854
101267
95423.2
101325
101325
100879
101304
100337
101325
101322
101325
100962
100968
101144
101089
101061
101325
90866.8
101325
101435
101320
101325
101325
101285
101325
100798
101206
94555
101325
101325
101193
101325
101325
100192
101380
101323
101399
101320
95281.7
100591
101325
100751
101318
100981
93731
100643
101310
101463
100725
101323
101348
101466
101325
95079.2
101325
100808
101377
101204
101325
97055.5
100372
100853
101214
101322
101325
101270
101543
101536
101360
101325
101325
100907
101319
101324
96322.5
101325
101045
100932
101325
101324
100924
101205
101057
101145
101324
100536
101291
101252
100962
101515
101325
101325
101325
101255
96236
101284
101315
95344.2
101325
101278
93720.6
101325
101326
94286.5
101084
101325
101325
101050
101315
101292
98056.4
101566
100599
101103
100951
101325
101324
101324
101160
101475
101325
101465
101325
94668.1
100981
97535.9
94869
101516
96457.4
94961.1
98182.7
101059
101067
95142.3
101476
101325
100901
101204
101325
101325
101043
101086
101207
101037
101380
101325
101171
101324
101320
97497.8
101224
100946
101305
101155
95273.6
101007
101273
96850.7
100895
101317
101325
101325
101325
101324
73528.5
101325
101319
101325
95798.7
101325
101170
101325
101325
101325
101224
98566.2
101325
101325
94675.5
100893
100826
101255
92767.3
101325
101325
100944
100936
101028
101325
100698
101325
93998.5
99359.1
101515
101325
94186.6
101345
100785
101268
95685.3
101376
101201
100902
100827
101325
100980
101325
100527
101325
101325
101325
101193
101301
101325
101325
99248
101292
101325
101301
100539
101325
101325
101325
94365
96825.4
101325
101325
100950
101233
101208
101325
100840
101319
101093
100449
101325
100965
101311
101325
100700
101218
101325
101325
101323
100866
101234
101325
99452
99759.3
101325
101309
101069
101325
101325
100792
94791.4
101325
101608
101314
101325
101527
101456
101337
101325
101324
101317
101325
101325
100708
101325
101325
101036
101232
101278
100136
101331
101297
101299
101271
101325
101086
101166
101325
100996
101555
101453
97438.6
100914
101299
101325
100878
101304
101325
100706
100886
101325
101325
101050
101325
99809.4
101325
100412
101325
101325
101325
101325
100501
101324
101325
101311
100809
98916.5
101325
100825
101325
101325
101090
101324
100555
100948
101325
100935
101325
100535
101325
101193
101325
101194
101325
100675
101280
101320
101319
101121
98570.6
101471
101325
101324
100864
101321
101325
99353.6
101325
101046
101325
101318
101010
101120
101237
101325
101101
101325
101220
101125
101292
101310
100896
101325
101304
101325
100966
101325
101325
101325
101324
101325
101325
101325
101325
100368
101325
101128
101056
101195
101325
101325
101267
101324
101204
100031
100927
100756
101325
101325
101399
101603
101274
101324
101511
101325
101173
101325
101156
100835
101306
101110
100757
100768
100642
100673
101319
100568
101266
101325
100748
100691
100831
101325
101325
100673
101307
100884
100867
101325
101325
100941
100804
101378
100472
101292
100028
100933
101325
101487
101094
101381
101469
101325
100769
101325
101293
100444
101325
101493
101316
101325
101316
101325
101325
101325
101325
101528
101325
100933
101325
101120
101123
101171
101325
98746.2
101325
101325
101165
101260
101310
100875
101325
101325
100947
97148.8
101322
101320
101325
100813
101325
101036
101325
101325
101325
101218
101322
101325
100765
101325
101325
101325
101325
94057.2
101301
100898
101325
101325
101325
100395
101256
100078
100203
101324
101325
101323
101319
101325
100537
100132
101325
101315
101325
101325
101325
101325
101325
101325
101325
101325
101110
101325
101325
101325
101299
101324
101317
101325
101325
101287
101226
101195
101241
101325
101251
101325
101325
101542
100545
101325
101325
101325
101045
101220
100472
100641
100688
101322
101022
97856.6
100725
101325
101297
101276
101322
101291
99855.6
100805
101008
101325
99654
101325
101325
101516
101325
101325
101323
101325
99911.9
101325
101181
99790.2
101325
101325
101325
101324
101325
101325
101325
101325
101144
101529
101211
101049
101569
101187
101325
101325
101325
101219
101332
101325
101325
101390
101323
101536
101332
101325
101325
101160
100813
100985
101310
101325
101167
101325
100858
101325
101325
100850
100757
100859
101248
101325
101325
101332
101315
100806
101325
101325
95572.9
101354
100918
101318
101368
101325
101296
101283
101231
100825
101340
101325
101009
101290
101185
101308
97580.2
101318
101325
101325
101144
101325
101324
101325
101316
101319
101324
101074
101253
101325
101325
101006
101325
101325
101322
101325
101325
101264
101389
101325
100955
101325
101423
101325
101392
96756.3
101325
101289
101382
101413
101325
101325
101383
101325
101153
101318
101325
101325
101325
101325
101325
101325
101325
101325
101230
101325
101324
101325
101493
101325
101325
101320
101325
101325
101325
101325
101325
101325
101325
101325
96033.6
95640.9
101325
101324
101325
100750
101325
101325
101325
101109
101325
94836.4
101201
100878
101325
101325
101393
101325
101110
101291
101325
101318
101323
101325
101214
101161
101362
101030
101325
101303
101308
100445
101314
101147
101325
101325
101325
101325
101325
98546.9
101254
101348
101226
101325
101325
101270
101325
101325
101325
101016
101325
101325
101072
101325
101325
101325
101325
101325
101323
101325
101325
101226
101325
101457
100825
94638.4
101325
101325
99518
101325
101325
101248
101325
101325
101360
101325
101322
101160
101325
101352
100914
100707
101430
101325
101346
101325
101325
100831
100740
101325
101210
101325
101325
101325
101325
101600
101078
101325
101568
101287
100870
91961.5
101325
101325
93676
101325
101063
100074
101325
100078
100164
100121
101325
101325
101076
101258
101325
101054
101325
101311
100736
101325
98655.5
101420
101251
100171
101323
101061
100885
95750.7
101325
101325
93190.3
100762
101325
101325
100801
100829
101325
100457
101315
101435
101325
101432
101325
101032
101325
101057
101325
101325
101000
101325
101325
100867
100103
100723
100713
101325
101048
100705
101325
101319
101131
101325
101325
101325
101432
100714
100988
100205
101180
100484
101324
100822
101428
100908
101243
101301
101070
101325
96134.5
101322
101325
101325
101325
100305
101325
101324
100967
94959.9
101056
101033
96270.8
101325
100897
100768
101325
101325
101325
100906
101353
100245
101325
100842
101322
98238.6
101008
101324
101325
100893
101714
101318
101325
101265
101410
101355
101396
93939.1
101325
101325
101324
101151
101325
95406
101267
101325
101325
101128
100531
101325
100732
100782
101321
101359
101325
101325
100338
101599
99854.6
101325
101097
101325
101124
101154
101037
101325
101480
101133
101325
101325
101260
101325
101564
101327
101118
100638
101075
100045
101325
99709.1
101325
101325
101325
101325
101325
101325
101325
101325
101234
100719
101325
101325
101282
101325
101325
101325
100863
101325
100800
101325
101325
101325
101324
101039
101325
100891
100836
101325
100961
101325
100700
101325
101325
101325
101325
101325
101325
99743
101321
101196
101325
101325
101325
101319
101325
101032
101325
101325
101325
101325
101067
101621
101324
100142
101278
101325
101325
101325
101325
100959
101014
101324
100981
101324
101325
101325
100912
101325
101325
101325
101325
101325
101325
101443
101322
101314
100975
101325
101092
101187
101056
101484
97094.2
101325
101323
101031
100811
101325
101017
101325
101324
101196
101216
95167.2
101303
101324
101325
101325
100948
101325
101325
101325
101178
101105
101641
101325
101325
101325
101325
101321
101267
101234
101324
101325
101325
101324
101324
101321
101323
101137
101325
101234
101196
100992
101017
101325
101325
101373
101233
101325
100929
100870
101354
100821
101023
101518
100834
100238
101294
101075
101325
101410
101657
100836
101201
101167
101325
101325
100877
100745
101287
101284
100850
101239
101579
100691
101319
101325
101404
101277
100889
101322
101325
101333
101325
101278
100717
101216
101325
101325
101325
101325
101325
101325
101258
101503
101390
101477
101325
101164
101153
100758
101321
101286
101154
101275
100968
101433
101306
101276
101272
101325
99834.4
98099.8
101325
101325
101328
101325
101325
101325
101431
101325
100362
101325
96184.2
101168
100934
101324
101020
101442
101325
101325
101011
101325
101235
101132
101325
101321
100497
101325
101325
101323
100590
101061
101325
101298
101325
101324
101324
101325
101325
101322
101314
101325
101325
101325
101382
101325
101414
101046
101026
101325
96364.8
100853
101325
101325
101325
101178
100990
101325
101316
99654.7
101008
101441
99428.1
101214
101318
101321
101325
101612
101324
100946
101392
101324
100875
100903
101325
101325
99984.9
94960
101492
101350
100605
100678
101230
101324
101324
100036
101217
101325
101325
101243
101289
99894
100854
101314
101324
101320
101325
101325
101325
101325
99862.4
95906.5
101325
101321
101325
101040
101262
101233
101322
101293
101225
101288
100995
101322
101325
101032
101314
100315
101325
101409
101415
101323
101014
101325
101265
101325
101457
101158
101485
100821
101208
101219
101325
95066.6
101232
101238
100856
101322
101325
101325
101325
100839
101486
101569
101419
101325
101458
101444
101473
101183
101365
101325
101540
101155
101312
101325
95726.4
101322
101503
101325
101325
101058
101325
101241
101325
101232
101101
101301
101342
101325
100295
101241
101290
101325
101323
100716
101325
100819
101374
101471
101390
101153
101255
101083
100823
100762
99072.5
96660.4
101325
100927
101207
100960
100761
101325
101277
100997
101307
101260
101278
101301
100968
101347
99709
100820
101251
100983
101337
101324
101432
99554.2
101013
101138
101323
101325
101095
101325
101325
101033
101068
101315
101325
101316
101324
101325
100958
101325
101325
101365
101070
101325
101254
101243
101289
100883
101043
101096
101325
101325
100944
101243
101016
100704
101325
101274
98430.7
101322
101312
101325
101325
101325
101124
101312
96018.8
101309
100764
98103.6
101297
101307
101366
101220
101253
100848
101316
101008
101324
101252
101319
101325
101325
101297
101325
101300
100705
101307
101325
101325
101325
101325
101323
101167
101325
101307
95741
101325
101003
101468
101325
100425
101368
100847
101325
101325
101325
101325
101325
100720
101325
101242
100946
100936
101325
100790
101325
100484
101325
100873
101322
100976
101316
101325
101325
101325
99590.2
101325
101325
101325
101325
101325
101325
101325
101376
101325
100247
100269
101325
101325
101325
101324
101325
96690.1
101325
101309
101252
101325
101325
100678
100503
101325
101325
101316
101325
101325
101325
101325
101325
100518
101325
101325
101325
101325
101325
101325
101327
100650
101325
101319
101325
101325
101325
101030
101436
101325
100122
101325
101325
101325
101325
101325
101325
101325
101325
101325
101325
101325
101325
100435
101325
101470
101325
101325
101325
101325
101325
101325
99974
101325
101325
101325
101325
101325
100103
101325
101325
101324
101325
101325
101325
101325
101325
101325
101325
101325
101325
101325
101325
101325
101325
101325
101325
101325
101325
101325
101110
101325
101325
101325
101325
101438
101325
101325
101325
101325
101325
101325
101501
101229
101325
101325
101047
101325
101161
101325
101080
101075
101325
101097
101325
101068
101325
101325
101325
101325
101325
101325
101325
101325
101325
101325
101325
101325
101325
101325
101325
101325
101325
101043
101061
101325
101325
101111
101325
101348
101325
101359
101325
101325
101325
101325
101325
101325
101325
101325
101325
101325
101223
101325
101325
101325
101316
101325
101325
101325
101325
101325
101325
101325
101298
101196
101325
101324
101325
101322
101041
101325
101325
101325
101325
101325
101325
101213
101325
101325
101325
101325
101325
101325
101325
101325
101325
101115
101325
101325
101325
101325
101325
101161
101325
101325
101188
101162
101144
100469
100125
100779
101325
101186
101197
101325
101165
101325
101325
101214
95119
101210
101325
101181
94883.1
101253
101218
100823
101325
101352
101287
101354
101241
99483.9
101179
101251
101276
100876
99436.9
100792
101325
101325
101325
98655.7
101261
101317
101325
101325
101325
101325
101325
101571
101325
101325
101325
101689
100916
101307
101325
100950
97933.4
100327
101325
101209
101325
100503
101325
101325
100914
101325
101325
101149
101325
101325
101325
100498
101322
101204
101325
101325
99736.9
101325
101325
101325
100921
101325
101325
101325
101325
100181
97923.3
101321
101281
101323
101325
100815
101324
101320
101325
101325
101325
101324
101325
101325
96533.2
90828.7
101037
101320
101325
101325
101216
101325
101030
101325
101325
101469
101325
101171
101173
99804.5
101325
101260
101182
101325
101323
101316
100952
101325
101325
99108.3
100829
101495
101068
101274
100672
101270
101325
101311
101324
101325
101325
101258
101312
101325
101210
101325
101322
100896
101325
101325
101325
101325
101297
101325
100398
101325
101325
101256
101200
101297
101325
99724.1
101325
101325
101325
101262
100825
101521
101325
100807
101299
101287
101329
101409
101121
100833
100702
100781
100509
101448
99683
101325
101325
101253
94402.6
101364
101363
101394
101034
101093
101083
101393
101326
101325
101309
100841
101325
98853.7
101307
100803
100081
101463
101325
100860
101170
101090
101446
100875
101474
101302
101325
100936
101325
99843.9
100332
100792
101325
100697
101591
101323
100930
100848
100926
101325
99825.7
100974
100995
99921.2
100663
99926.4
97893.3
100673
101325
100656
100756
101325
101472
99710.5
101083
101160
101325
101020
101325
101325
101325
101325
101304
101426
101325
101319
101206
101271
101325
101645
101262
101350
99798.2
101235
101263
101260
98788.7
101325
101325
101096
101325
100954
100894
101130
101250
101315
101325
99401
101325
101325
100011
101347
101258
101238
101325
101325
101325
101480
101317
101291
101441
100997
100983
101306
99781.7
101325
101484
101127
101325
100769
100766
95726.6
101325
101325
101480
101017
100556
94988.7
101325
101365
100905
101296
101240
94564.3
101309
101024
101086
101325
101087
101170
98548.4
101159
100636
101414
100877
101028
101552
101149
101325
101325
100715
101378
100910
100663
100978
100990
101325
101077
99878.2
101154
100896
101187
101196
100987
101008
101144
100541
101422
101105
99883.8
101325
99799.4
98253.2
101384
101325
101325
101506
101008
101325
100666
100529
100792
101130
101325
101214
101248
101173
101207
101208
101211
101325
100980
100882
101325
100971
101325
101444
101061
100781
101231
101325
101324
101325
101325
101325
101325
101242
101325
100871
101325
100847
101325
101315
101009
101325
101300
101142
101117
100690
99542.4
100951
100782
101083
100931
101324
100913
100013
101484
101325
101293
101362
100859
100753
101325
100870
101136
95685
101520
101505
101333
101256
101325
101327
101475
101392
101373
101369
100974
97011.9
101325
101331
101323
100146
101458
101624
99826.5
96886.5
101166
100012
100486
101271
101367
101361
101325
100561
95430.5
101223
101047
100816
101354
101588
101090
101223
99962.7
101325
101667
101324
101324
101293
101162
101126
96082.4
99425.9
101259
100081
101458
101404
100803
101246
100798
101325
100811
101278
101099
101348
101450
100986
100358
101197
100930
101181
101470
100754
101063
101062
101384
101327
100939
100852
100353
101277
101046
101302
101138
101325
101179
101323
101144
101035
100557
100855
100825
101325
100199
97587.7
101547
101536
100870
101164
101017
101159
101005
100834
101456
101513
101565
101383
101153
101316
101377
101376
101325
100750
101325
101301
101398
101238
101295
101323
101325
100964
101325
101418
101032
101075
101188
101256
101325
101224
98535.3
101325
101274
100985
101220
101190
100001
94090.3
100971
101305
101147
101201
101134
101091
100201
101127
100987
101295
99555.9
101112
101039
101213
100592
95833.7
100904
98361.8
100886
101325
101364
101254
101220
101297
101154
101411
101325
101104
101060
100952
101107
101641
101501
101253
101288
100595
100665
100088
101180
101398
101066
101010
101153
100522
100622
101437
101413
101181
101334
100137
101453
101111
101335
100553
101121
101029
101345
101246
101201
100760
101325
100869
100635
100631
100532
100784
101325
100811
101394
101211
100361
98210.9
101314
101075
101130
100604
101325
101152
100676
101167
101319
101250
101150
101548
101288
96289.3
101247
100230
100729
101207
100734
101320
101275
101370
101220
99296.9
100550
101323
101313
101319
100367
101390
100647
101160
100731
101132
101005
101176
101123
101101
101192
100904
101313
100694
101325
101325
98712.4
101325
100846
101318
101325
98739.8
101321
100885
98477.1
101267
100487
101302
101323
99872.3
100620
101325
101325
100302
101208
101188
100808
100912
101102
101277
100892
101234
101039
100769
101181
101293
100714
101089
101273
101368
101310
99477.4
101224
101283
101130
101401
101225
100662
101142
101234
101176
100681
100796
101173
100774
100693
100716
101100
101032
101270
101061
101143
101325
96248.7
101391
101209
100486
101469
101229
99982.8
101186
101239
101267
100568
101325
101302
101334
100924
101139
101320
101207
101229
101173
101005
100308
101255
100851
100696
101314
96089.9
101204
101141
101190
101325
95137.1
100448
101441
100071
101287
96671.7
101141
100348
100491
100971
101283
101345
101361
101299
101336
96374.4
97076.8
101108
101308
101325
101190
100634
101279
101241
101281
101233
101325
101185
100310
101229
100581
101261
101172
101206
101409
101349
101220
101166
101278
101082
101277
100947
101360
101251
101188
101128
101153
101285
101208
99763.3
101104
101070
101017
101325
95889.1
101325
101325
100584
101089
101310
100681
101229
101267
101272
101010
100859
101339
100815
101199
100193
101208
101084
101188
99911.4
101499
101308
100762
100735
101325
101296
101166
100899
101072
101321
101323
101007
96582.9
100930
100802
100616
101236
101265
101299
101207
101240
101347
101268
100237
101203
101176
101163
101293
100941
99391.4
100847
101161
101062
101231
101303
101325
101258
100716
101153
101258
101325
101325
101241
101086
101331
101375
100663
101216
100936
101140
101395
100951
100408
99612.3
101336
101159
101090
101051
101228
100787
100993
99688.8
101258
101177
101023
101222
101334
101405
101399
101300
101142
101037
100925
101248
101171
101325
101214
95620
101324
100919
101311
101325
101300
101325
101325
101497
101264
101325
101263
101388
100889
100914
101322
100739
100908
101325
101365
101250
101536
101303
100356
101325
101358
101325
100902
101359
100971
100884
101570
101325
100986
100819
100887
100939
101208
101442
101376
101147
100830
101243
100617
101199
100767
101213
100547
101321
101325
100091
101325
100588
101325
101309
101325
101274
101338
101101
101348
101158
101251
101025
100780
101206
96351.1
100925
98865.7
101239
101241
101151
101322
101325
100960
100869
101125
101317
72155.6
101246
101325
100881
101251
101205
101325
101296
100939
101189
101325
101314
101226
101284
101023
100774
101325
101325
101316
101383
100718
101189
100758
100998
101223
101325
100008
101287
100618
99986.4
101411
101317
101011
101245
101183
101285
100609
101165
100773
101325
101415
101325
101302
101125
101528
101303
99955.1
101302
101406
101307
101312
101325
101110
101201
101420
100955
101060
100429
101284
100826
101242
100983
101325
101325
99550.4
101324
101212
101325
101268
101324
101275
101324
101312
100875
101325
101275
101325
101323
101074
100370
100707
99787
101325
101159
101160
101215
101200
101168
100458
101171
101325
101030
101375
101206
101223
101325
101201
100929
100151
101322
101312
101325
100878
100993
101291
101144
100706
101311
101309
101294
101325
101325
101045
101325
101009
101302
101325
101244
100793
100671
101285
100046
99878.8
100933
101436
101236
101176
100981
101255
100112
100691
96132
101325
101324
100768
101099
100161
100796
100975
101008
101325
101289
101116
99237.1
101231
99575.2
100823
100822
101137
100219
100268
101078
100853
100671
100970
101094
101037
100825
101325
101324
101686
100064
99755.9
100817
101325
101021
99861.9
101149
101222
100909
98512.3
101197
101274
101324
100945
101325
101325
101325
101325
101325
101325
101325
101325
101272
101325
101307
101325
100920
101325
101325
101157
101165
101325
101567
101093
101325
100858
101325
101325
101325
101325
101325
101325
101286
101325
101325
101008
101323
101035
101325
100964
101325
101315
101309
101325
101323
100861
101325
101299
101367
101248
101351
100816
101325
101323
101234
100760
101323
101325
101325
101199
101486
101166
100748
100887
101019
101325
101176
100764
101317
101324
101324
101151
101325
101325
101321
101046
101176
100745
101129
101325
101201
101325
101181
101483
101325
101325
101324
101323
101325
101286
101325
101347
101325
101325
101325
101166
101128
101152
101438
101325
101325
101489
101323
101325
101325
101325
100792
101285
101325
101325
101325
101325
101325
101325
101325
100981
101325
101325
101325
101325
101327
101325
100957
101325
101150
101325
101325
101325
101325
101325
101325
101325
101325
101325
101325
101233
101325
101325
101588
101171
101325
101325
101325
101325
100787
101309
101325
101537
99160.8
101316
101325
101325
101306
100820
101404
101325
100818
101325
101325
101318
101070
101055
100881
100779
101325
101325
100831
101325
101325
101325
101325
100796
101325
101325
101325
101325
101325
101325
101325
101291
101325
101325
101325
101325
101684
101305
101459
101325
101325
101424
101325
101325
101390
101332
101325
100802
101325
101407
101120
101325
101325
101325
101325
101325
101055
101325
101325
101325
101325
101325
101325
101214
101325
101273
101325
101325
101325
100816
100952
101325
100369
101323
101290
100702
101325
100838
100896
101580
101321
101325
100839
101325
101325
101301
101722
101325
101596
101325
101325
101441
101322
101325
101325
101325
101296
101325
101325
101627
101325
101268
101325
101325
101325
101341
101603
101325
101325
100913
101325
101325
101325
100803
100771
101322
101325
101325
101325
101325
101324
101325
101325
101325
101018