/*--------------------------------*- C++ -*----------------------------------*\
| =========                 |                                                 |
| \\      /  F ield         | OpenFOAM: The Open Source CFD Toolbox           |
|  \\    /   O peration     | Version:  2312                                  |
|   \\  /    A nd           | Website:  www.openfoam.com                      |
|    \\/     M anipulation  |                                                 |
\*---------------------------------------------------------------------------*/
FoamFile
{
    version     2.0;
    format      ascii;
    arch        "LSB;label=32;scalar=64";
    class       volScalarField;
    location    "0.3";
    object      k;
}
// * * * * * * * * * * * * * * * * * * * * * * * * * * * * * * * * * * * * * //

dimensions      [0 2 -2 0 0 0 0];

internalField   nonuniform List<scalar> 
32842
(
0.022509
0.0226319
0.0225263
0.0225262
0.0301785
0.0225262
1667.69
398.115
0.0225262
0.0225262
70.3296
56.0886
0.0225204
0.0225262
0.0225169
0.0225284
0.0225257
0.0225262
0.022516
0.0299447
0.0310594
0.0305976
0.0296363
0.0225263
0.0294374
0.0225262
0.0225262
0.0272833
3.0257
0.0225008
103.941
0.932346
123.443
0.0225112
252.089
667.367
0.032457
0.0225175
0.0225166
0.0225127
0.0225262
0.0309696
0.0225262
0.0225262
0.873609
0.0225072
165.603
0.0225123
0.0306652
0.500815
154.633
0.0225262
0.944393
1.10035
0.0225263
0.102257
0.0225262
1.9059
0.0225262
0.0225262
423.746
0.94265
0.94288
0.0310566
0.0225133
67.0074
0.0225262
0.962299
0.936473
0.0226683
0.0270331
29.3017
0.937512
0.0225262
0.0225262
0.0224172
0.139835
0.0225262
0.940294
140.689
0.0300824
0.0225262
0.0225262
0.945026
0.960513
0.0225262
0.0225262
0.0973526
0.564022
0.0225262
0.0301725
0.0305887
109.69
0.0225241
0.0225262
0.0225065
0.938426
0.0225191
0.948906
0.0225262
0.0225262
0.0354226
0.0227519
13.9435
0.938022
0.93537
26.1605
0.022795
0.924465
0.0226011
0.0225262
0.0225262
29.0483
0.0225262
0.0227219
0.0307888
0.945134
12.0426
0.022659
0.0225013
0.0225262
0.0225262
0.0769741
0.0225263
0.0213827
0.940855
0.921098
0.0225107
151.279
0.0225263
0.0225262
0.0231873
0.0399945
0.908705
0.0390465
0.0225352
0.0178826
2.26447
0.0225066
0.0225248
0.93945
0.0225123
0.942928
0.699251
0.0225192
0.0225139
616.12
0.0225115
0.0225262
0.0225259
0.0231097
0.853161
0.0285816
145.387
0.0225395
0.0225262
0.0225262
0.0225122
0.0225066
0.0225262
0.0225111
0.0225262
0.0294982
0.0225262
0.0225695
0.0225081
0.0225262
0.02252
0.0225256
95.1201
3.7487
0.0354566
48.2275
0.0225262
0.0312504
39.6947
0.0225183
0.0227344
0.0225262
0.0225262
0.0279671
0.0225256
0.0225256
0.0225262
0.945563
0.0225254
0.934789
0.0225261
0.0225169
0.0225238
0.0225248
0.496139
0.934623
0.0225262
0.936167
0.0225269
0.0224948
0.0225231
0.93729
0.0225262
0.0225074
0.0225526
0.769793
69.1756
5.24096
0.0615727
0.0225251
0.0310568
0.9294
0.0225112
0.0225149
0.0230219
68.05
60.7394
0.0225259
0.0225262
0.0225127
0.0225269
0.022501
0.0225377
0.311665
0.0225262
0.0225262
0.0224975
0.034952
0.926297
0.0225262
0.940062
0.0225197
178.475
0.0225262
0.0225262
0.0224792
0.0225262
130.093
0.0299609
0.03022
0.125524
0.0225275
0.942841
0.399302
0.0225254
0.0225033
65.6229
0.0225165
0.0225406
0.940768
0.0225262
0.0225262
0.0225261
0.0225262
0.0225262
0.0225341
0.941452
0.0225327
0.0225262
0.0225244
52.1108
0.0225259
0.0225103
0.0225262
0.0225262
0.0225262
0.0225262
0.931857
0.0225262
0.0225262
0.0225218
0.022511
0.0225263
0.0225262
0.947217
0.0225262
0.924427
0.0225262
15.9162
0.0225054
0.0348605
0.0225262
0.022508
0.0225262
151.218
177.364
0.0225262
0.0225079
0.0884555
74.2046
0.0225262
0.0310456
0.0225262
771.503
0.0225262
0.934884
134.032
0.329709
0.0220214
0.933657
0.0225262
0.0224985
0.029371
114.664
0.0225263
0.0225261
0.0225263
0.0225262
0.0225262
0.0225262
0.0225262
0.0224966
0.94031
0.0225261
0.0225262
0.944804
0.0225262
0.0225262
0.022526
0.0225129
98.3491
0.0225262
0.0224994
0.0225051
0.355213
0.0225261
0.0251854
0.0225263
0.0225261
0.0225082
0.0225263
0.0225219
0.0225262
0.0224963
0.949429
0.0225262
0.0225262
0.0225209
0.0225262
0.955526
0.938347
0.0225262
0.0225255
0.022514
0.0224979
0.0179745
0.0225262
0.939329
0.0225262
0.0225262
0.930546
0.94194
0.939247
0.0226506
86.7734
0.0225096
0.938175
0.0225262
0.0225097
0.0301823
0.0225098
0.0225262
0.0224745
0.0225262
0.0225262
0.0225227
3.06531
0.0225262
0.0225237
0.0225262
0.0225262
0.278093
0.0290956
0.0225262
1040.44
0.0225211
0.036994
0.0225262
0.921566
0.0336211
0.0225262
0.0185828
0.0295988
0.0225025
0.939744
0.946911
0.0225054
0.0225278
0.0225263
0.0225262
0.0225262
0.0225262
0.02252
0.0225259
0.0225101
0.022526
0.0225262
0.0225237
0.0225262
0.0225185
0.0224995
0.0225046
0.0225429
41.5669
0.0225262
0.0225032
0.0226206
109.016
0.0225521
0.0225005
0.0367623
0.0225262
0.0315094
0.899213
0.022523
0.0225262
0.0225194
0.0225252
0.0225094
0.02251
0.0225105
0.022525
3285.95
0.0225189
0.932609
0.0225262
0.0312312
521.106
0.0225262
0.0225112
0.0225262
0.0215667
0.0225262
0.022426
0.0225262
0.0225262
0.945865
0.0300342
0.940988
0.0225182
990.137
17.8707
0.943947
0.030981
1.39969
0.0317085
0.945328
0.022526
0.022509
0.0260035
0.0225263
0.0288871
1.98006
0.0225263
0.0225302
0.0225702
107.785
0.0284482
0.0225128
0.0225105
0.0304395
0.0225519
0.0225452
0.0225229
0.0315419
0.0225262
0.0225262
0.0225262
0.0225292
0.0225157
0.943888
0.0225181
0.0226719
0.0225262
0.0316641
0.0302733
0.0225262
0.0225159
0.944724
0.941487
0.0225262
0.0225262
0.0225262
0.0225262
0.030106
0.0225103
0.48042
0.944476
0.0225262
0.0225263
0.946634
0.0227192
0.0225262
0.0331874
0.022732
0.0262051
0.0228822
0.933976
0.0311716
0.932824
0.941441
0.0212592
0.0225036
0.0308548
76.8989
0.0225607
0.941467
0.0325187
0.94872
0.028478
0.0225262
67.1189
0.0321365
0.0225213
0.939863
0.0225056
0.924401
0.0225177
0.0225262
0.0342523
0.0371448
80.141
389.272
4.72026
33.6767
60.4652
35.2982
108.891
0.944671
0.0225162
0.0225258
0.0225128
0.946939
1.21639
0.952021
1.0011
0.0225294
0.0225262
0.0286146
1.06275
0.0225263
364.908
2.45415
0.0224859
146.804
0.0178655
25.5692
0.0225248
0.0225262
0.0225292
0.942016
111.999
0.0225262
0.0317785
0.0225232
0.359752
0.933923
0.0225131
0.0225115
0.022526
0.0225262
0.395497
1.69234
0.0225262
0.0225262
0.0225373
0.929804
0.6621
0.950546
0.0225062
0.0225262
0.0225262
65.6843
0.948655
0.939911
19.335
0.934657
0.0225262
17.001
0.936279
0.0225119
129.401
0.0225262
0.0301554
0.0225262
0.0226057
0.0303002
0.0296122
0.0225262
0.0225157
0.0225186
0.0225066
0.948118
0.0312289
0.0225262
0.0225031
80.6577
0.0225262
0.0486001
50.558
0.957739
0.0225207
0.0225262
31.9693
44.6747
187.794
0.0225153
61.4963
0.949353
0.838504
0.022882
0.711253
0.0225262
0.0225262
0.0225263
0.0225262
0.0225262
0.75159
0.0304675
0.0225192
0.0225262
0.0225142
0.0225262
0.0224835
0.0225258
0.0225277
0.585744
0.94741
0.02251
0.0225262
0.120553
0.532515
2.7062
0.0225139
0.35077
0.0225262
0.0225262
0.0225592
40.5856
0.943688
0.0225262
0.030239
0.0225262
0.419576
0.0225262
0.0225262
0.0225262
0.0225263
0.507091
0.0225262
0.0225262
4.11782
0.744463
0.0223311
0.0225262
0.0225262
0.942169
0.957108
0.0225262
0.936514
0.0298972
0.0225262
0.0225262
164.095
129.419
0.0225262
0.94736
194.366
0.0225326
0.383202
0.0225149
0.0225262
0.0316481
0.0341074
0.0237571
0.0225453
153.899
0.0225262
8.30991
0.0225262
0.0225262
37.9187
121.966
2.02271
0.322782
0.0225262
0.0225262
0.0290528
0.0297301
92.1553
93.4203
98.6135
176.612
0.022539
0.0227301
113.274
0.0225262
1.14842
0.0225208
0.0225324
0.957241
92.0421
0.0225239
0.0225419
0.0225262
0.0225253
0.0225227
0.0225262
0.0225128
0.0225262
0.0225262
0.945677
0.0225262
0.0225155
0.0225262
0.955034
0.0225262
0.0225173
0.0225069
0.910302
0.0225262
0.0225077
0.0223832
0.0225228
0.0225311
0.0225262
0.0230966
0.0225173
0.0225117
0.0225021
0.0225073
0.00978648
0.0225209
0.0320387
0.0257074
0.0315711
0.0225262
0.0331636
0.0387601
0.926384
0.0225099
0.0225028
0.031533
0.419732
0.0225262
0.920064
0.0297421
0.0225262
0.0225262
0.023764
0.0225255
0.0225325
0.937311
0.0225262
0.0225261
0.0225118
0.0311758
0.917951
0.022503
0.0329047
0.0225262
0.0290051
130.894
162.515
0.0291593
0.022517
0.945515
0.0225261
0.0225262
0.0225233
0.0224972
0.0225503
0.0225206
0.455572
0.0225262
0.0228178
0.9428
0.0338594
0.0225112
0.0226393
0.0225262
0.936265
0.037842
0.944172
0.0225115
0.940848
0.92882
0.0307824
0.0225263
0.0285885
0.0225248
0.0316232
0.0225138
0.0225256
0.0308392
87.854
0.920448
0.0225308
124.096
0.0225234
0.922126
0.0225288
0.0225262
0.0225259
0.0225262
0.0225173
0.022558
0.0225328
0.0225261
0.0225262
0.0225254
0.022527
0.0225067
0.947078
0.0226116
0.381156
0.0225108
0.0225162
0.0303476
15.0317
0.0225294
0.0225096
0.0308812
0.0225262
0.0226835
0.0225263
0.0352477
0.959503
0.0225262
0.0225262
0.0225246
0.0225238
0.0225262
0.0225795
0.0225259
0.0225262
945.417
0.0225185
75.855
0.0225134
0.0225136
0.0225485
0.0225756
0.0299435
0.0225147
0.0225262
0.0225262
0.0225258
0.919987
0.0225262
0.0225286
0.943291
0.0225213
0.937495
0.0225261
162.625
0.0225047
0.0225157
0.951931
120.665
0.0224818
0.0225158
100.004
0.0338824
0.0225212
0.0225068
0.0225262
0.0225075
0.0225086
0.933661
6.13144
0.926432
0.0225262
0.938298
0.0225254
0.0224955
0.022495
0.0331897
0.0257845
0.022526
0.022507
0.0225262
0.022513
0.0226245
0.0225262
0.0225175
0.0225055
0.0225615
0.142608
0.0331276
0.0225262
0.555794
1.05303
0.0225113
0.0155509
0.193165
0.0225262
0.0225261
0.0225135
0.918394
0.0225262
0.0225262
0.932731
0.0307541
0.0225261
0.0225262
0.0225262
0.0225028
0.0258882
0.795719
0.0225262
0.0225177
0.939041
0.0225206
0.0225121
4.42726
0.0225016
0.0225262
0.0225263
0.0225238
0.939444
0.0225261
0.0224997
0.0225262
0.0225202
0.033562
0.0225262
0.938979
0.0302119
146.225
0.0225262
0.0225262
0.0225191
0.0225159
0.0224973
0.0225262
0.185873
22.9265
0.028317
0.114361
0.0225262
0.0291752
0.0225262
0.0225262
0.0225271
0.0225262
0.0224888
0.0225262
0.0225262
0.0225209
0.0225098
0.0225262
104.399
0.022515
0.95417
0.022524
0.946197
0.948285
0.0225262
0.0294938
0.939899
70.0374
99.748
0.136523
0.0225176
0.0225263
0.0225262
0.0225263
0.761288
0.0225263
0.686461
0.476602
0.374914
0.446244
0.025865
66.243
0.0225262
8.31618
576.99
0.0225262
151.549
0.0195836
0.0225336
0.0225262
0.022526
12.0472
0.0225179
0.934043
0.0304978
228.748
0.921376
0.940785
0.0369701
0.0225262
0.0225192
0.0225104
0.0225117
0.022592
0.0225262
0.0225218
0.0225051
0.83695
0.0324694
0.0225125
78.45
0.022515
0.0225104
0.0225644
0.0225085
115.593
0.554896
0.022508
0.0225021
0.022512
0.936441
0.448545
0.0225083
2.29225
0.914521
2.99391
0.0225346
0.0225384
139.485
0.943212
0.0225307
0.0225173
0.0225262
0.0225439
50.6265
0.0225491
0.916021
0.0225388
0.0225262
0.0225162
0.0225126
0.0243236
11.6106
0.0225177
0.0225076
313.695
0.529721
0.938373
0.0225068
41.3783
155.514
0.0225163
0.0225262
0.0225101
0.950419
58.4451
0.0225227
0.0291843
6.05589
0.0225129
0.0271466
6.17086
0.022523
0.0225261
0.0225225
0.022526
159.553
0.0225414
0.022534
0.0140736
36.6679
0.0264501
0.0258969
5.32112
0.0225179
166.038
0.920048
0.0225006
0.945176
0.961487
30.0405
0.668124
24.8906
23.7991
0.0225168
137.799
0.936704
0.0125908
0.0225001
0.0225323
0.0225164
0.0225181
0.0225234
0.0225397
0.0225318
57.8897
0.0225262
0.0225262
0.140249
0.0225262
0.0225222
182.891
0.550571
0.035678
0.0253045
0.0225115
1.09005
197.802
0.931673
0.0225406
0.0225122
0.0225625
1.00582
141.215
0.0346856
0.0226569
63.2281
0.0225115
2.9149
0.0227104
0.0225121
2.46957
0.0327126
0.0225403
0.316978
0.0225244
0.0225282
0.692746
155.043
81.4132
0.0225248
0.0225036
0.0225262
0.0225151
0.0227951
0.0228309
11.1605
0.0225262
0.0225262
60.3948
0.0225147
0.0225152
0.51039
0.0225262
34.7318
50.7069
0.0225262
0.0224944
45.9123
11.5058
33.6675
23.8796
0.0225034
141.61
13.8507
0.0360974
130.878
0.0232863
0.941811
0.022519
0.0225193
0.0225089
5.30054
0.0396432
0.0225095
0.809207
0.944686
23.7986
0.994986
0.0225262
0.618356
2.24011
1.15201
0.0225262
0.02252
16.3874
0.0225117
0.0225422
0.712539
0.0229127
165.167
11.0849
0.0466414
0.0251083
0.0225181
0.0225089
24.3307
1.05805
0.0225262
0.0226554
0.0225262
1.02759
0.0225228
0.687107
153.42
0.0226682
0.263988
49.2356
0.161979
36.8852
67.2045
153.825
0.0227654
0.944984
47.0822
0.344394
0.0282027
0.0225262
40.3777
0.0225199
0.0227319
0.0408438
0.0151487
0.935701
4.00785
0.0338493
0.931038
490.052
0.0225176
60.7611
0.0366428
0.93035
27.8998
0.0225247
0.384089
0.59031
72.1464
0.0382626
0.0225262
0.947123
0.0225262
0.030491
1119.31
0.0296829
0.0225503
0.938257
0.748557
0.0225127
161.387
0.0225262
0.0225127
0.0225224
0.0225112
6.11926
0.0292194
0.0225262
0.508953
0.964732
0.0225294
0.0226389
32.5182
0.0225024
0.0225262
0.0225895
36.6039
20.8646
0.0225234
103.223
0.0225262
74.267
0.653287
0.0230989
0.936011
16.136
0.285543
0.0541787
0.022605
1.41676
19.4313
33.8999
164.98
172.486
0.0311133
18.2587
0.022526
128.925
0.0225217
0.93481
0.0225338
11.4075
0.0225164
0.0307948
0.026736
21.6993
8.65784
0.0306171
0.0225169
161.296
0.933728
0.022514
0.0225262
38.0478
0.453228
0.0225224
0.949872
0.0225323
5.73151
5.74835
0.950074
0.0225418
0.0225114
14.7172
160.215
0.0300504
0.0225776
0.0341946
0.022514
0.0225327
4.95965
0.0225262
0.925295
0.94255
0.0225559
0.029797
0.0225262
114.51
128.854
0.0225262
0.0407564
20.1269
0.0225262
0.0225262
0.0225335
0.742709
0.022526
0.0227119
0.0225062
0.0332948
0.0226972
0.0227952
0.0225884
0.0225262
0.0225227
0.0225135
0.0225259
0.0225227
0.0225201
0.0225104
0.0225109
34.4216
0.0226541
0.0225145
177.547
0.0170786
0.0225183
0.022528
0.0226578
0.0225262
0.0318929
14.6938
0.0225019
0.0225678
0.0227251
0.0235362
0.658429
41.7758
0.0369223
0.92239
97.7639
0.0225104
0.0224818
153.998
109.55
0.0303137
0.937518
0.0225941
0.0225016
94.4849
0.0304709
132.131
0.0333151
0.0343091
0.0282106
0.0225051
127.475
0.0225278
0.0225263
0.034916
117.083
244.422
0.924816
99.4181
0.0296992
0.0291001
0.074653
0.022468
112.89
42.2999
0.0294113
54.7875
0.0225172
162.577
0.0224984
0.024404
0.022536
6.60233
0.0225262
85.2088
0.0225797
0.0225202
0.0347165
11.4519
0.400078
0.0228129
0.0225254
0.0225133
35.3951
0.0225188
0.0225262
112.677
0.0225262
23.842
0.0224727
0.0225335
0.022631
0.0225179
0.0225165
0.0225262
22.1253
0.0225175
0.522498
0.906515
0.0226116
0.0225219
0.0225269
0.0225243
0.0225227
0.0225285
68.3238
0.0225189
0.0225066
0.0225262
0.0349683
0.925261
0.0224834
0.0225421
0.0225262
135.637
0.0225251
0.0225198
0.0225273
0.0225149
0.0225212
0.940057
0.0225251
0.0225172
0.0225202
145.79
0.0226555
0.0225401
0.0225303
0.940424
0.0227181
0.0228285
0.0393824
0.0224964
0.0227619
0.0225113
9.48855
0.0225203
0.0225138
0.0209859
2.94875
39.4799
0.0225281
133.376
120.592
109.959
0.0225019
128.801
0.079121
0.0291302
0.0225327
95.9623
73.4078
0.022512
0.0225263
0.0225258
0.0225176
50.651
58.963
0.0225165
0.0225262
0.0218482
0.0225376
0.0227232
115.057
0.0225221
166.557
171.957
0.0225262
0.02321
0.741584
0.0230753
0.0214001
0.0225255
0.0225453
0.935343
0.0225243
149.073
0.0225128
0.0228773
0.0225153
0.939766
0.0346197
0.0225193
0.0225258
0.0225262
0.0225255
0.0234858
0.0225251
28.6385
0.0225223
0.0150369
0.0854021
0.0417771
0.0225121
0.142113
0.958687
0.0225152
11.9818
1.11752
0.0382265
0.0225594
0.0225254
0.942917
9.9369
0.836013
0.322941
0.0225063
0.0225262
0.0408281
0.0225197
1.41637
0.0225237
0.0225177
0.0310251
0.172852
0.0225092
0.0225262
66.9957
0.0225262
0.0225285
0.0225262
0.0225262
14.6173
0.913938
48.2916
0.0225262
0.0225145
0.0225051
155.219
0.0231635
100.977
156.09
0.0340708
0.0225265
0.0225176
0.0225185
0.0225262
159.739
167.93
0.0225262
0.0225109
0.022525
0.022525
0.936862
0.0225262
0.942415
0.0225262
0.945694
0.032205
4.79826
0.0225262
0.0225262
0.0225262
0.0225732
0.0225541
0.0225464
0.0225262
0.932505
0.0225983
0.776489
4.71363
1.85646
0.0225208
0.022513
0.0225263
0.0225262
0.0228187
133.746
0.0225262
0.0225278
0.0225208
0.957723
0.421818
124.952
162.063
112.015
0.931243
0.0422891
562.214
0.0223354
0.936572
0.0224954
0.0224425
0.0374385
0.836276
77.8222
0.0664416
0.0225643
0.939733
138.476
0.0225262
0.0225262
0.0227254
0.0225433
0.0225075
0.0225194
0.030466
92.6401
0.0225262
45.5528
132.078
0.0225262
0.0225262
0.0225262
0.0225138
0.0225262
0.0225262
0.0225226
0.0331032
12.4313
0.0226748
0.66193
35.6544
0.022779
4.11146
0.94669
0.0225234
0.030541
0.125237
0.0229775
0.0305205
0.0315033
10.3097
0.939581
0.0226417
107.444
0.0225262
0.0225247
0.0121076
0.0225329
0.0225428
0.0225172
0.0225262
36.101
0.0225261
0.0225343
0.0225232
0.0225262
0.0225321
0.0225474
0.0225373
0.0226422
0.945604
0.0225262
0.454855
0.0225122
0.0231343
0.0225476
0.0225262
88.2822
0.0226221
0.0225729
0.918415
0.0145401
0.0225087
0.0224738
0.0200879
0.117409
24.1324
0.0231915
0.0225262
81.799
0.0225154
0.0225245
0.0225132
0.476091
0.0225072
0.0225194
0.0225104
14.6619
0.0290192
0.0224996
0.0307242
0.0225115
0.945558
0.0347597
0.0225278
0.0255859
0.0225262
0.0225214
0.0225445
0.0225258
0.0225262
0.022506
0.0314278
0.0225261
0.0225183
0.0230361
0.943444
25.5743
0.0225231
0.0228627
0.0327573
0.0229719
0.855821
0.934615
0.222071
0.0232091
0.0227141
0.0312415
0.0225179
0.0228589
0.0225258
21.3761
0.918777
0.0313958
0.938993
0.941302
0.0225234
0.0225263
0.949678
0.0225262
0.0225264
0.216677
0.0301803
0.0225137
0.0225131
0.0203418
0.0225187
0.0225111
0.0225104
0.0225262
0.0225108
0.958199
0.0225155
0.022525
0.0225049
0.0225109
0.0225262
0.304509
0.586445
0.0339577
0.022517
0.0299141
0.0515769
0.022515
0.0225259
0.0225251
43.3247
0.940557
9.48017
0.0225327
149.786
0.0225113
0.0225216
0.800432
0.933761
0.022535
0.0226008
0.0225262
0.0225145
0.0224981
0.0225116
0.0225312
0.0225335
0.533332
0.452286
0.940551
0.0225128
0.0225114
200.439
0.0225142
70.6924
0.022526
0.029676
0.0225252
0.0225262
0.0225255
3.25308
0.779378
0.0224038
0.0224208
0.0225262
0.0225262
0.0103777
0.0225246
0.95022
0.0310369
49.7519
0.932086
0.0225262
76.462
0.0225262
0.0225194
0.0225262
0.0225262
0.0225096
0.0225274
0.939145
0.0225162
0.0413676
0.0225262
0.0227613
0.0225394
677.692
0.0225066
0.0224917
158.28
0.940292
0.0225261
0.0225124
0.0225112
0.0225282
0.430102
0.0225182
0.938778
0.0225619
0.0225275
0.110297
45.5151
0.0225276
0.0218041
0.0225228
0.0230874
0.0225262
0.0225262
192.769
0.0225466
0.0225262
0.0369436
0.0225262
0.0225171
0.0225286
0.0225262
0.0226455
0.0484122
0.02252
0.0227627
3.19549
61.4862
129.035
0.0225262
0.0225255
69.6508
0.0225259
0.0226789
205.825
0.0225297
95.2156
89.8081
171.647
0.932586
0.0225243
0.0225312
0.0225228
0.0225262
0.0225325
0.931673
0.0225042
0.945285
0.0225233
5.58257
0.140331
0.0225227
172.546
0.0225049
0.022527
0.0256954
54.4127
0.943875
0.0225262
9.17359
0.0225157
0.0225262
0.0225258
0.0225552
0.0225367
0.0225262
178.611
0.92635
0.0227855
0.0225112
0.0227871
0.0225262
139.68
0.0225262
35.9962
0.0225249
0.0225262
0.0224457
0.0319306
0.02252
46.6143
180.727
0.0225272
0.0225367
0.0225261
21.512
0.0225353
0.0225262
0.0225112
27.0405
0.0225108
0.0225262
0.0225238
0.160386
108.868
51.1646
183.798
4.27832
167.761
0.0225082
0.0225432
0.0226264
15.0547
0.0225371
0.0225296
21.1325
0.0264775
0.763848
0.0225222
0.0225175
0.94451
0.946395
173.282
0.0225262
0.0225127
58.8392
15.638
0.106826
59.0598
0.65933
0.0225262
0.0225515
62.6727
0.0225126
0.0225261
0.0316804
72.8665
0.0210245
141.757
0.939964
100.694
0.0225064
0.983603
34.849
0.0225121
0.0225204
81.3436
0.0226521
0.0225121
0.022526
0.0225214
0.0229262
0.0434031
0.0227024
193.415
0.0225122
0.0225262
0.0225253
0.0224331
0.0280682
0.285015
0.0225147
0.0225236
0.0225173
6.83594
161.583
0.0225053
0.0225325
0.0217718
0.0225085
0.0229531
0.0225262
0.0225125
172.077
0.0228055
95.8215
0.0225262
22.3713
0.0225168
2.76769
3.27954
37.848
0.0225232
0.0229191
6.10915
0.022506
0.0225261
0.0225207
0.0225116
0.0137984
0.00559942
9.42994
100.943
24.8551
125.162
0.0299589
118.345
0.0305818
0.0334638
0.022522
0.0225165
0.0304004
0.0225223
0.0288544
0.0225223
0.0226171
0.0225412
0.0314757
0.0225108
0.023035
0.0318424
0.0225241
0.0225262
0.0225376
0.0225081
0.0225339
0.0225262
0.924406
0.0225115
0.022514
31.403
0.0224972
108.137
129.916
0.939484
77.141
0.938367
139.236
0.939353
0.0225262
0.0225262
0.0225053
0.928913
0.0225262
131.521
0.022517
0.0226132
0.0225259
0.0225105
0.0225033
0.0225064
0.0225063
0.0221745
0.0225112
0.940677
0.0225111
0.0225261
112.313
0.0227754
0.0225152
147.154
0.938122
0.0225212
0.0225086
0.0225246
0.954898
56.482
58.9611
191.651
77.1686
0.0225167
0.0225258
0.0225257
0.0225671
0.022505
0.0225252
0.0303794
0.0225233
0.0225257
0.022525
0.0226493
0.0225072
0.0225086
0.0225292
0.0225444
10.2357
12.614
47.4235
0.327117
0.790044
0.0225117
0.0225049
81.2631
0.0218239
0.0225246
69.3308
0.0303941
0.0225214
0.0225175
0.0430071
19.0016
0.713252
0.0225098
0.0225262
0.0325153
72.4697
0.0225262
0.0225238
0.0225262
0.236563
35.0204
0.0227395
0.0334658
0.0225198
0.0225262
0.0225243
0.0225013
0.0225253
0.0225195
0.0225065
0.0225235
0.0225101
0.022502
0.0225063
0.0225166
0.0225113
0.00427614
0.0225202
0.254506
0.778869
99.6275
13.2173
0.941689
0.94591
0.928935
1.08112
0.0225262
0.0225602
0.0223937
0.188046
0.920687
0.936609
0.125742
85.8957
198.761
6.26433
12.8506
0.0296853
0.0126809
0.0227942
115.642
0.130181
21.0668
0.0225275
0.0225015
0.0225399
0.0225449
0.917511
0.0728549
0.111328
12.4672
0.0226973
0.0225404
0.0225207
0.0225227
1.73243
0.0286109
0.0225443
0.0225151
0.955172
0.0131427
0.0225214
0.0225261
0.0225366
0.0225328
0.0225262
0.022509
0.93359
0.0225234
0.0225262
0.0225057
61.66
0.0226989
0.0223479
0.0230942
0.0225269
6.79913
0.0225134
0.0226481
0.0224997
0.130691
27.8675
10.1645
0.0225256
1.90632
0.0225177
0.0225148
24.2107
0.945402
184.462
24.2372
0.933143
0.0225262
21.9082
0.0225223
0.0225262
0.0225262
0.0226425
0.0225262
55.5752
0.0225262
0.592028
6.93433
0.0225355
0.0225185
0.0423822
0.0227462
0.947636
0.0225262
0.0648298
0.0225262
0.0225997
13.808
0.0225069
0.0225064
187.929
0.0225236
0.0225267
0.0225221
189.501
27.9304
0.0225213
6.65603
0.0225264
0.0225281
0.0225215
0.0225263
0.0225014
0.0224962
0.0225053
0.0225262
0.02252
0.0225398
0.153246
0.0225254
0.0113725
0.0225679
0.0531049
0.0309021
0.401564
144.442
0.0225262
0.0225262
0.0225007
28.6525
135.868
0.0225262
0.0225006
126.638
56.0784
0.172636
159.29
4.02629
0.0225028
0.924175
0.937222
0.0227207
0.022505
0.0225297
0.0226646
0.942696
0.0221441
78.1556
0.0225262
0.0225136
103.355
171.732
0.0226929
70.6807
222.969
0.0225321
0.0225956
0.0340696
0.0225096
212.926
0.0323656
0.0321909
0.03474
0.0225229
0.0225154
116.874
0.0649462
0.0225406
0.0224951
0.0225099
0.022513
0.0225232
0.0225246
0.936722
103.641
0.720871
0.0225262
0.0225046
0.0225262
0.0225292
0.0226471
0.0225252
0.0225589
0.0228415
0.437393
0.0225062
0.891396
0.942988
0.0225259
0.0225831
0.022517
177.164
0.0225262
0.0229456
0.656597
0.954857
0.0225081
0.0225262
0.0225241
0.0225065
0.0227267
93.4757
0.0228588
0.0225388
14.3477
29.9073
0.022509
65.1334
0.0224025
0.0209013
0.0236624
0.022511
0.954908
0.0225195
0.0225247
0.0225438
0.0226442
0.0226674
0.0226132
0.0362637
0.0227084
0.0306642
0.022655
0.00695221
0.0227997
0.0225195
0.0227076
0.0225816
0.036238
0.929767
3.03415
0.0230227
0.0232501
0.030956
0.0225132
0.0345319
0.933115
9.43854
0.034279
0.599909
0.0225196
0.0400078
0.304873
0.0225244
185.213
66.7467
2.53125
0.0336927
0.0311563
0.913635
0.0225283
0.0224898
0.0182849
72.6334
0.0223624
0.0225249
0.347726
0.0225904
0.0225328
0.0331108
2.47646
501.472
0.0225095
0.870412
0.0225142
0.865208
0.0225524
0.022516
0.920426
0.0225504
0.0353659
21.413
0.00707906
0.0329352
127.852
0.0227952
0.58899
0.0225331
0.953831
7.03877
0.0214707
0.0225473
0.0221746
26.9954
69.9801
11.1448
0.0225258
0.0225514
69.6616
0.0225103
0.0225274
20.5967
13.5669
0.0333038
0.0225117
0.0224985
0.022522
0.944953
0.0225315
0.0224977
0.0225262
0.476075
0.022547
0.0225262
0.0239682
0.0387388
0.022508
0.0225112
88.2238
51.7431
0.0225064
0.0225145
0.892263
0.308153
0.0225656
0.846247
0.0326319
0.0380611
0.733753
0.0225178
0.163133
0.0298246
0.0225179
0.0225369
6.11168
0.0845317
64.6919
0.0225098
245.259
0.773844
0.135897
0.913599
0.000717478
5.00636
8.53286
82.6498
0.911347
35.2871
0.926921
0.0225257
0.022563
0.943047
0.0225102
0.0225169
0.939983
0.743086
0.0225347
0.0226008
0.0225025
0.0224999
0.0316281
0.939324
0.0225056
3.44801
0.0225278
0.0225211
4.35981
0.93955
44.7495
0.0227159
0.963189
172.291
6.85876
103.673
0.0225263
0.0225286
0.0225228
0.0225233
0.0305114
0.03546
0.0225265
0.0225188
43.9947
51.0461
0.0354276
280.147
0.938957
280.676
0.0313238
64.8497
0.0225206
77.4804
0.0305598
0.943842
0.022553
0.0225262
221.616
0.0225262
0.0225262
0.022525
0.0225262
0.0225262
0.029442
0.936499
0.0331045
0.0225262
156.665
188.197
0.0293277
0.0225262
0.0225257
0.0225106
0.0225184
0.107018
0.0225152
0.916975
0.924135
0.0225262
0.0225262
159.207
161.27
0.957586
0.944322
0.0225508
0.0345649
0.946386
0.0225262
0.0225262
0.0225177
236.413
0.0225262
0.0225262
0.0225262
0.0225262
0.0305246
0.0225219
0.0227254
180.298
0.0259491
0.038942
0.0225035
0.935955
0.946986
137.65
0.00707092
0.0225237
129.888
0.022521
0.0225263
0.0225263
0.954324
0.0225261
0.0311397
0.955086
0.0225262
0.0225262
0.938746
0.0225263
0.0225262
124.467
0.952323
0.0228048
0.950705
0.0225231
0.0225262
0.0225262
0.0225262
0.0225262
136.079
0.0225259
0.939415
0.030228
0.0225262
0.0225262
96.6173
0.0225592
0.91106
0.0300644
0.0225262
0.0225262
0.0225263
0.0225261
0.0290717
0.939336
0.0225262
0.0308532
0.935467
0.0225262
0.0225262
0.0297794
0.0225261
0.0225262
0.0299846
0.029508
0.0225262
0.0225262
22.5688
0.933741
0.0306112
0.944822
0.945003
0.0230753
0.951618
0.0225262
0.0225262
0.022526
0.0225261
0.0225262
0.0227577
0.160159
0.0225263
0.0297024
49.7831
0.030432
0.0225985
0.0225257
9.91717
1.52097
0.0303028
20.2827
0.0225262
11.9374
0.0225249
0.022524
0.0225262
0.0225262
0.929887
0.0225263
0.946872
0.022526
0.0225262
0.0225262
0.0225261
0.03063
0.0290413
0.93362
0.95065
0.0225262
0.0225262
45.58
49.856
0.0225262
0.0225224
14.9279
0.95309
0.019372
0.940699
0.0213532
0.0225263
0.0225262
0.0225262
0.0225262
0.029332
0.945662
0.953428
0.0225262
0.0225261
0.0301304
0.0225429
0.93991
0.0225118
0.0225262
0.0225117
0.0309074
0.0296332
0.030709
0.0225262
0.0289124
0.939784
0.0225114
0.0225115
0.0222632
0.945848
0.0224988
0.0225262
0.0225351
0.0225183
0.0225262
0.946582
0.0323936
0.0225263
0.0225262
0.961649
0.0225063
0.0225262
0.926334
0.925422
0.0313717
0.0225262
0.0225262
0.0311841
0.0225262
0.0225262
0.0225458
0.0225262
0.0225262
0.0225262
0.0225262
0.0225262
13.9762
0.0225262
0.0225262
0.0233844
40.5685
0.623213
203.727
176.916
0.0225406
0.9255
35.791
3.20781
0.0299434
98.6096
0.0225258
0.921386
9.06253
2.61414
24.6205
0.0310824
71.4512
0.604342
0.0643318
31.2363
0.0225409
0.0225262
0.20202
0.022521
20.5145
17.38
101.561
0.127589
30.4371
11.0833
124.937
2.88427
214.697
0.022499
0.0225262
0.0225182
355.552
1.2389
0.0225068
0.0303539
0.0225173
0.0225263
0.0225138
0.94659
0.0226636
0.0306902
0.0225336
0.0225067
0.0227684
0.0225327
1.1846
0.0306493
0.0225615
1.1514
172.026
0.933318
0.022524
0.929006
267.468
0.95283
0.0288617
0.0225254
0.0225074
0.0294462
0.101805
0.031318
0.0225272
0.0311625
261.03
0.0225535
0.0225208
0.943634
0.0225259
279.591
0.0292295
0.0225262
0.945493
0.0248578
0.0225535
0.0327639
0.0310066
0.942106
153.273
2.41032
0.0225108
0.929373
0.0367377
0.022534
0.0225695
0.035058
0.937124
0.0225262
0.0225123
0.0225212
0.911079
0.0328615
0.930731
40.4445
375.503
216.487
0.942132
0.94601
0.0225099
0.0225328
0.0225171
32.363
0.0225094
0.0315676
1.9736
0.0262388
221.333
76.9867
124.622
0.0225262
185.414
188.555
0.0225294
0.0225289
0.0344331
0.0227091
0.0225115
0.0225153
59.5512
0.0225454
0.0226721
0.0225219
0.0226659
112.759
0.227667
0.0225173
0.0225152
0.943089
0.0225262
0.0225135
0.285696
0.942993
0.0300603
0.881643
0.0225204
0.030383
48.0038
0.0225225
0.0225164
0.94286
0.0300258
0.0710712
0.0225194
168.589
0.948062
0.93577
0.0224252
21.1131
0.0228173
0.0225206
116.443
0.0296081
0.0225178
0.0225262
0.0227167
0.0225407
0.0220692
0.0225262
0.0699844
0.0225164
0.0225209
0.0227121
0.0234864
0.0225289
0.022553
0.0225424
0.0225365
135.47
0.0227489
0.725413
0.929981
0.0225262
0.592952
0.892636
0.1997
0.433458
0.286639
91.32
0.320566
103.539
0.0222474
0.0294072
0.0225262
0.126193
0.0225265
0.0225262
3.97346
0.0225081
102.19
132.105
0.0234172
0.0224959
0.0225371
0.0225324
5.90918
0.105442
0.0225272
4.91179
0.0230135
0.0225262
6.63753
0.0225079
135.294
184.188
0.0225391
0.0225262
0.022545
0.0221655
0.0225078
51.6006
0.0728502
56.2014
0.0225262
102.466
0.0225369
0.614947
158.004
66.9807
69.5606
0.241071
0.0221012
0.0225262
110.586
137.01
0.0225262
0.0226744
98.3806
0.0225256
0.022524
0.0225262
105.995
0.940638
0.0225244
0.0225212
0.0225255
2.78571
0.348325
0.0225195
0.0225237
0.0225177
0.0359867
0.0225125
0.022668
0.0226702
0.535148
170.45
0.813081
0.0226067
0.238754
1.96483
0.022515
0.0225035
0.0263851
0.0322036
0.0226851
0.0225698
8.80627
2.77885
2.3686
0.0225264
137.793
0.0303717
0.0225262
193.977
1.58576
0.90092
0.556894
0.937672
0.0225263
0.0225262
0.0225034
0.0225099
0.0238755
0.0226544
117.542
0.0226008
0.477984
103.863
0.0225262
0.0231053
0.0224913
0.0225262
0.072052
0.0225394
48.6868
0.0225262
0.0225262
0.0205589
3.91789
70.377
1.14703
0.0225262
0.438199
0.0225502
0.0225058
0.381572
0.516799
0.0225119
22.01
1.63991
0.022523
17.2769
5.01983
1.38185
0.221979
104.004
0.353706
0.0710567
0.821734
0.0227003
0.966871
0.0225262
0.0225223
138.774
0.946632
38.9269
54.9593
67.0977
1.75626
0.0225262
0.0225916
165.66
1.52173
21.2751
2.38161
5.9578
15.7074
50.255
35.3814
140.223
0.141199
36.5449
97.0178
0.0286905
123.648
18.8007
0.0078665
0.0301397
0.947592
0.0227613
61.6323
0.0316737
40.5938
298.685
0.0225309
234.18
0.0225262
0.0259051
0.508935
0.0234964
1.31334
7.41211
0.0147842
0.940502
0.0225271
0.0225508
0.941363
84.0855
0.0225262
0.808066
0.0223821
0.0225386
0.0239282
0.0296321
0.0225004
0.0225262
0.0225262
0.0224939
0.950657
0.0121105
0.0225253
0.0225369
0.0225047
66.9071
0.0225262
0.02263
0.0227617
0.0225262
29.3343
0.0847137
0.0225763
0.0225369
150.919
29.7827
0.0243759
17.6118
0.0225306
0.0225166
0.944402
202.146
0.022849
0.0225094