/*--------------------------------*- C++ -*----------------------------------*\
| =========                 |                                                 |
| \\      /  F ield         | OpenFOAM: The Open Source CFD Toolbox           |
|  \\    /   O peration     | Version:  2312                                  |
|   \\  /    A nd           | Website:  www.openfoam.com                      |
|    \\/     M anipulation  |                                                 |
\*---------------------------------------------------------------------------*/
FoamFile
{
    version     2.0;
    format      ascii;
    arch        "LSB;label=32;scalar=64";
    class       volScalarField;
    location    "0.5";
    object      alphat;
}
// * * * * * * * * * * * * * * * * * * * * * * * * * * * * * * * * * * * * * //

dimensions      [1 -1 -1 0 0 0 0];

internalField   nonuniform List<scalar> 
32842
(
0.000770351
0.000768433
0.000771575
0.000771263
0.00203609
0.000770773
7.55099
4.84815
0.000771581
0.000770645
0.94769
1.32453
0.000771285
0.000771581
0.000764706
0.000770926
0.000770674
0.000770357
0.000772586
0.00199212
0.00219271
0.00398966
0.0019151
0.00077162
0.00214774
0.000771302
0.000770818
0.00148959
0.44248
0.000772093
1.21799
0.632432
26.1879
0.000771236
31.2615
7.32696
0.00244843
0.000778103
0.000773258
0.000770102
0.00077151
0.00218766
0.000771559
0.000771581
0.436393
0.000771662
2.1435
0.000771754
0.00213572
0.222633
8.20132
0.000771573
0.789464
0.71964
0.000771548
0.0188497
0.000771024
1.35366
0.000771589
0.000771581
5.39345
0.756355
0.846702
0.00222071
0.000771371
11.3841
0.00077157
0.943231
0.586323
0.000771229
0.00147386
3.04435
0.667119
0.000771581
0.000771506
0.000772958
0.556696
0.000771492
0.664179
0.94383
0.00202044
0.000771453
0.000771485
0.742807
1.04952
0.000771538
0.000771526
0.00859714
0.147086
0.000770325
0.00243229
0.00225303
8.12054
0.000769799
0.000770887
0.000771191
0.648454
0.000767484
0.965528
0.000771581
0.000771581
0.00391912
0.000780863
0.430502
0.663364
0.606715
2.65983
0.000557612
0.700217
0.000768365
0.0007705
0.000770787
5.37043
0.000770727
0.000771825
0.00215747
0.728334
0.824523
0.000771394
0.00077134
0.000770406
0.000770698
0.143165
0.000771166
0.000687696
0.659124
0.523574
0.000770839
6.69543
0.000771253
0.000771457
0.00101753
0.00350185
0.65303
0.00382428
0.000769992
5.67214
0.15211
0.000770987
0.000770602
0.711452
0.00077076
0.707709
1.75702
0.000771086
0.000770896
22.2729
0.000770951
0.000771581
0.000770372
0.000802318
0.21944
0.00220952
2.12657
0.000768985
0.000771548
0.000771421
0.000771224
0.000770601
0.000770743
0.000770466
0.000771459
0.00190737
0.000771491
0.000769747
0.000771848
0.000771459
0.000771121
0.000779421
2.17587
1.49254
0.00342643
2.69593
0.000771581
0.00225556
1.0527
0.0007715
0.000772098
0.000771568
0.000771226
0.00123562
0.000771077
0.000770932
0.000770642
0.732977
0.000770818
0.673198
0.000770757
0.000770711
0.000771317
0.000771263
0.11064
0.574351
0.000771505
0.597043
0.000770891
0.000771716
0.000770446
0.643906
0.00077038
0.000771807
0.000782445
0.11815
4.02877
4.00223
0.00713013
0.000770514
0.00222511
0.599359
0.000769924
0.000770863
0.000790929
2.80156
2.43154
0.000770497
0.00077158
0.000770499
0.00077276
0.000770753
0.00077071
0.111907
0.000771013
0.000770224
0.000770596
0.00320847
0.503328
0.000771603
0.623767
0.000770782
3.57688
0.000770309
0.000770822
0.000767505
0.000770834
3.69897
0.0024447
0.00245203
0.639229
0.00076991
0.75863
0.120568
0.000776002
0.000770428
4.41107
0.000771239
0.000770906
0.801098
0.000769868
0.000770828
0.000778167
0.000771581
0.000770829
0.000769758
0.648877
0.000772497
0.000770826
0.000770929
1.91911
0.000770608
0.00077166
0.000770736
0.000771574
0.000771581
0.000769906
0.492159
0.000770691
0.000770288
0.000771694
0.000780781
0.000771609
0.000770438
0.652663
0.00077086
0.497834
0.000770761
0.798275
0.000771275
0.00323225
0.00077094
0.000770398
0.000770702
10.2673
8.39
0.000771572
0.000770324
0.00755983
8.16747
0.000771581
0.00235965
0.000771524
15.3406
0.000771603
0.582909
5.49832
0.308288
0.000748728
0.578069
0.000770555
0.000771512
0.00188766
2.2601
0.000777634
0.000770386
0.00077483
0.00077136
0.000771581
0.000771581
0.000771578
0.000772046
0.760582
0.000776416
0.000771581
0.754544
0.000770642
0.00077158
0.000769979
0.000770748
7.27779
0.000771158
0.000771417
0.000771182
0.135672
0.00076981
0.00116693
0.00077161
0.000769821
0.000771355
0.000771599
0.000770509
0.000771574
0.000771428
0.684191
0.000771521
0.000771581
0.000771246
0.000771123
1.27773
0.589098
0.000771581
0.000770898
0.000771505
0.000770596
0.0318013
0.000771495
0.761996
0.000771579
0.000771271
0.613486
0.877825
0.700359
0.00078928
6.93882
0.000770824
0.645112
0.000770793
0.000768989
0.00343105
0.000771165
0.00077058
0.000770041
0.000771581
0.000771577
0.000771494
0.928714
0.000770469
0.00076999
0.000771575
0.00077155
1.12848
0.00182924
0.000771492
12.6157
0.000771131
0.00341334
0.000771539
0.705749
0.00307078
0.000771581
0.0564777
0.00193505
0.00077068
0.770921
0.662652
0.000771602
0.000770017
0.000771614
0.000771435
0.000770502
0.000770613
0.00077094
0.000770081
0.00077109
0.000770774
0.000771012
0.000770348
0.000771581
0.000770551
0.000771141
0.000771514
0.000769109
0.13159
0.000771581
0.000771055
0.000772909
3.32658
0.000770299
0.000771339
0.00341158
0.000770886
0.00251801
0.516939
0.00077105
0.000771581
0.000770112
0.000771107
0.00077062
0.00077068
0.000770984
0.000771123
12.0641
0.000770994
0.665397
0.000771298
0.00308959
7.40505
0.000771271
0.000771641
0.000771514
0.000680982
0.000771597
0.000777453
0.000771581
0.000771148
0.676955
0.00202005
1.2885
0.000770529
10.6184
3.43333
0.719932
0.00266671
8.94107
0.0028375
0.734339
0.0007779
0.000770712
0.00130294
0.000771606
0.0017996
4.68482
0.000771619
0.000771249
0.000775456
10.0187
0.00172125
0.000771514
0.000769898
0.00208888
0.000770031
0.000781008
0.000769329
0.00229837
0.000771463
0.000771568
0.000771579
0.000768662
0.000771025
0.738854
0.000771357
0.00077546
0.000771581
0.00232025
0.00206224
0.000771581
0.000771303
0.743128
0.689702
0.000771525
0.000771603
0.000771581
0.000771581
0.00201973
0.000770742
0.302791
0.741251
0.000770896
0.000771608
0.945384
0.000754374
0.000771581
0.00264486
0.000773303
0.00133489
0.000828431
0.694698
0.00222797
0.558959
0.74341
0.00744729
0.000771835
0.00321747
4.18567
0.000769252
0.696222
0.00294074
0.961592
0.00171651
0.000770296
4.26311
0.00270786
0.000770948
0.670656
0.000771774
0.647736
0.000771131
0.000771602
0.00320488
0.00340282
6.23092
5.8823
0.865545
1.73347
3.86413
3.10869
8.39142
0.721423
0.000770232
0.000770613
0.000771047
0.742834
0.790114
0.868205
1.05236
0.000770493
0.000770844
0.0017532
0.392917
0.000771496
3.25688
4.34141
0.000799344
1.20711
0.000472473
3.18514
0.000777018
0.000771581
0.000770279
0.707546
1.66725
0.000771581
0.0023546
0.000773602
0.191724
0.583841
0.000771005
0.000770679
0.000770708
0.000770756
0.325775
1.48868
0.000771574
0.000771581
0.000769291
0.643301
29.3408
0.931567
0.000770288
0.000770416
0.000771581
2.48271
0.751426
0.562454
1.7942
0.574693
0.000771097
7.11374
0.575389
0.00077063
2.76316
0.000771584
0.00202745
0.000771581
0.00717791
0.0022655
0.00193784
0.000771581
0.000771132
0.000771579
0.000771123
0.752126
0.0027154
0.000771598
0.000771394
2.25425
0.000770898
0.0052611
1.72156
0.893445
0.000768482
0.000770568
1.92266
1.47542
31.655
0.000771581
11.8186
1.06997
0.303024
0.000774363
0.346168
0.000771597
0.000770191
0.000771615
0.000771581
0.000771581
0.734039
0.0021083
0.000771123
0.000771579
0.000770953
0.000771581
0.000767748
0.000769804
0.000770363
0.0287818
0.919876
0.0007707
0.000771579
0.0178575
0.257425
0.239455
0.000771509
0.21545
0.000770713
0.000771578
0.000778648
2.46687
0.671087
0.00077118
0.00270245
0.000771358
1.85955
0.000771566
0.00077158
0.000771599
0.000776478
0.247743
0.00077158
0.000771581
4.61293
0.954884
0.000761145
0.000774051
0.000770333
0.590199
1.05234
0.000771536
0.675867
0.00297602
0.000771578
0.000770624
3.05826
7.80678
0.000771581
0.947081
2.90765
0.000770702
0.401057
0.000771011
0.000771581
0.00316436
0.00285557
0.0008095
0.000770607
2.07106
0.000771198
3.86809
0.000770425
0.000771315
2.08806
4.71821
1.0541
0.354846
0.000771581
0.00077344
0.00182863
0.00194455
2.59412
0.320484
6.59728
6.20467
0.000768554
0.000772278
8.86703
0.000770294
0.786675
0.000771248
0.000776883
0.834223
0.353961
0.000769636
0.00077086
0.000770156
0.000770135
0.000772382
0.000771566
0.000771082
0.000771581
0.000771581
0.771079
0.000771581
0.000776574
0.000771581
1.21295
0.00077041
0.000770861
0.000770783
0.569847
0.000770924
0.000771656
0.000775669
0.000769529
0.000771226
0.000771598
0.000832694
0.000773484
0.000771775
0.000771364
0.00077145
0.000106204
0.000767576
0.00280532
0.00128775
0.00232603
0.000771411
0.00330303
0.0038107
0.555153
0.000771211
0.00077103
0.00262702
0.35885
0.000771581
0.505654
0.00354824
0.000771581
0.000771581
0.12515
0.000772889
0.000774712
0.779795
0.000771581
0.000770952
0.000771275
0.0025852
0.645342
0.000771436
0.00284971
0.000770915
0.00183351
1.73081
4.14662
0.00235588
0.000770933
0.87821
0.000770661
0.000771581
0.000771188
0.000770727
0.000779157
0.000767066
0.154464
0.000771464
0.000771416
0.791316
0.00292649
0.00077082
0.000769867
0.000771536
0.868458
0.00382372
0.711134
0.000770812
0.574956
0.517546
0.0022565
0.000771602
0.00185339
0.000771208
0.0028531
0.000771522
0.000770746
0.00239092
2.00243
0.633936
0.000771379
11.4881
0.00076899
0.53591
0.000771045
0.000770307
0.000770985
0.000771471
0.000771748
0.000778856
0.00077092
0.00077017
0.000770924
0.000771204
0.000771505
0.000770926
0.64959
0.000785296
0.115928
0.000770745
0.000771007
0.00253339
5.00684
0.000770908
0.000770928
0.00215376
0.000770249
0.000770265
0.000776018
0.00395617
0.880058
0.000771581
0.000770383
0.00077796
0.000769602
0.000770563
0.000769564
0.000770764
0.00077158
14.3534
0.000771949
42.26
0.000770423
0.000771371
0.000768252
0.000766956
0.00229194
0.000770534
0.000771581
0.000771581
0.000770297
0.177707
0.000771581
0.000775441
0.704473
0.000768513
0.655428
0.0007702
14.5361
0.000771208
0.000771348
0.89673
6.18219
0.000768029
0.000770324
6.89824
0.00275628
0.000771785
0.000771473
0.00077158
0.000771566
0.000771493
0.642856
0.775993
0.662497
0.000771581
0.716003
0.000771352
0.000770242
0.000771252
0.0016529
0.00125329
0.000770181
0.00077071
0.000770339
0.000770677
0.000770079
0.000771581
0.000770777
0.000769787
0.000767793
0.0154321
0.00288619
0.000771577
0.125884
0.227357
0.000766635
0.595558
0.0668028
0.000771581
0.000770246
0.000769518
0.495949
0.000771581
0.000771579
0.622169
0.00288755
0.000770256
0.000771577
0.000771581
0.000771567
0.00114046
0.152633
0.000770947
0.000768225
0.556252
0.000775214
0.00077375
1.35141
0.000770242
0.000770688
0.000771612
0.000771246
0.638672
0.0007765
0.000769745
0.000770307
0.000773743
0.00263168
0.00077158
0.555568
0.00204324
10.065
0.00077158
0.000771581
0.000771411
0.000771467
0.000771359
0.00077158
0.0648033
1.68556
0.00169813
0.0165552
0.000771578
0.00184363
0.000771296
0.000771502
0.000773415
0.00077158
0.000772217
0.000770608
0.000771581
0.000771797
0.000770405
0.000769909
0.197768
0.000770997
0.924218
0.000771239
0.766166
0.744946
0.000771581
0.00190131
0.74725
2.91142
5.13566
0.0484946
0.000771489
0.000771613
0.000771581
0.000771613
0.130195
0.000771608
0.168573
0.123129
0.058036
0.128235
0.00127972
7.12051
0.000771581
3.04818
9.74011
0.000770325
3.22447
0.0603604
0.00077087
0.000771566
0.00077105
35.5782
0.000769597
0.687367
0.00237902
31.1101
0.480794
0.778812
0.00341885
0.000771581
0.000770451
0.000770329
0.000770992
0.000768251
0.000770474
0.000770699
0.000770773
0.152515
0.00367505
0.000770506
1.53256
0.000770945
0.000771093
0.000769742
0.000771002
1.29601
0.49547
0.000771551
0.000770625
0.000771518
0.677437
0.0812621
0.00077104
2.01921
0.709417
0.0661235
0.000770839
0.000769895
0.801112
0.773897
0.000770228
0.000774421
0.000775091
0.000769262
6.77911
0.0007696
0.500062
0.000782011
0.000771543
0.000771896
0.000771115
0.000891636
8.24229
0.000770505
0.000770494
62.7239
0.111508
0.618213
0.000771041
3.32287
1.27666
0.000772124
0.000771596
0.000771758
0.900863
8.15229
0.000770978
0.00217565
1.72014
0.000771388
0.00104646
1.8126
0.0007706
0.000770713
0.000779478
0.000770902
11.7898
0.000770926
0.000768855
0.0764207
46.4933
0.00134747
0.00138357
5.1457
0.000770184
5.89494
0.479777
0.000771136
0.851266
0.395732
3.63765
2.25708
2.7277
2.65971
0.000771349
3.1937
0.625732
0.000822368
0.000771323
0.000769879
0.000772212
0.0007708
0.000770657
0.000770672
0.000770147
2.11452
0.00077071
0.000770306
0.0153794
0.000771205
0.000768822
2.26244
0.0761776
0.0020589
0.000894371
0.000771272
0.616737
12.4311
0.622025
0.000770262
0.000771128
0.00076986
0.231647
4.6063
0.00345409
0.000750888
9.52128
0.000770498
1.8341
0.000446983
0.00077082
0.219771
0.0027611
0.000770555
0.0363815
0.000771069
0.000770782
0.271132
5.5416
3.86839
0.000770115
0.000770061
0.000771581
0.00077025
0.000772279
0.00562621
6.29677
0.000771581
0.000771128
5.13623
0.000770773
0.000771631
0.407798
0.000770731
3.5626
4.00341
0.000771006
0.00077106
4.1996
1.45491
3.95843
1.84124
0.000771346
10.4286
0.792977
0.00420055
6.52402
2.11502e-05
0.815344
0.000770457
0.000771473
0.000626449
0.465718
0.0036447
0.000770048
0.3884
0.618212
7.42467
0.106801
0.000771581
0.0542686
0.543239
2.27374
0.000771581
0.000771544
6.66345
0.00077025
0.000778149
0.210888
0.000782135
10.7305
3.27479
0.00443393
0.00133404
0.000771194
0.000770473
3.99458
0.336164
0.000761333
0.000768692
0.000771581
0.215685
0.000777522
0.223459
21.4194
0.000770182
0.431661
2.28793
0.301319
3.48751
4.43685
2.5001
0.000771158
0.744461
4.04159
1.98385
0.00171072
0.000770664
4.13618
0.000770214
0.000576969
0.00329859
0.656761
0.640835
2.51866
0.00300769
0.772982
5.39992
0.00077076
4.99588
0.00331828
0.781134
1.99548
0.00077041
0.869949
0.349361
3.01189
0.00352963
0.000771587
0.785174
0.000771577
0.00232904
1.09212
0.00194299
0.000770214
0.626978
0.327953
0.000771668
9.89936
0.000771581
0.000772071
0.000771318
0.000770785
0.979967
0.00184838
0.000771554
0.186307
0.498122
0.000770204
0.000769865
39.6494
0.000771814
0.000771513
0.00076943
3.98534
3.17268
0.000770525
7.85333
0.000771581
2.38533
0.278505
0.000787183
0.643029
1.10026
0.0905102
0.00592496
0.000766252
0.459929
9.56002
0.193321
3.89052
13.3178
0.00230078
3.48517
0.000769885
8.30155
0.000768445
0.61763
0.00077283
2.60918
0.000771392
0.00215316
0.00119687
1.27302
0.356752
0.00209383
0.000770993
5.61053
0.583432
0.000771504
0.000771581
2.35796
0.114921
0.000766583
0.838912
0.000771129
4.82725
1.67688
0.844435
0.000769152
0.000770226
2.42206
1.20461
0.00264392
0.000769084
0.00264137
0.00077124
0.000769307
0.350322
0.000771578
0.657162
0.595369
0.00076886
0.550704
0.000770866
1.8288
0.637017
0.000771581
0.003955
0.943343
0.000771591
0.000771581
0.000769631
0.253851
0.000770779
0.000770753
0.00077429
0.00310626
0.000770251
0.00077644
0.000768256
0.000770332
0.000770596
0.000770262
0.000770767
0.000769544
0.000769232
0.000770709
0.000770987
2.57374
0.000769275
0.000771044
3.11353
0.0238229
0.000771341
0.000771282
0.000520503
0.000771581
0.00289935
2.17997
0.000771777
0.000768236
0.000770268
0.00068846
0.333378
0.182801
0.00407913
0.532863
5.36678
0.000771136
0.000771931
9.80126
6.22457
0.00275586
0.834095
0.000768125
0.0007723
0.872913
0.00298277
3.51396
0.00273795
0.00334946
0.00166829
0.000771637
3.93213
0.000770607
0.000771622
0.00333722
4.6622
3.17914
0.487445
3.9779
0.00193916
0.00183291
0.00919212
0.000764239
2.31766
2.69995
0.00188953
0.743998
0.000771354
3.08705
0.000771684
0.0564071
0.000779728
1.20936
0.000771393
4.34972
0.000774457
0.000770734
0.00290446
3.05519
0.755484
0.18171
0.000770839
0.000771512
4.84572
0.000771037
0.000771581
0.333369
0.000771581
2.21582
0.000768073
0.000772344
0.00079126
0.00077114
0.000770524
0.00077158
1.94869
0.000771086
0.512766
0.25777
0.000769113
0.000770877
0.000769598
0.000771511
0.000772217
0.000771343
4.03567
0.000771722
0.000771694
0.000771581
0.00296305
0.507775
0.00077207
0.000779349
0.000770497
2.83061
0.000762454
0.000770939
0.000771019
0.000770503
0.000771212
0.762728
0.000770457
0.000770888
0.00077029
2.26219
0.000763313
0.000769382
0.000771002
0.754773
0.000769962
0.000772359
0.827229
0.0007721
0.000777092
0.000762597
2.49567
0.000770811
0.000770811
0.000690135
1.85229
3.88254
0.000769316
6.86496
6.50399
5.35124
0.000771127
6.60348
4.54171
0.00242858
0.000769712
8.3534
5.85265
0.000771876
0.000771201
0.000769361
0.000770812
8.53876
6.4972
0.000771378
0.000771312
0.000744142
0.000770135
0.00077045
0.71996
0.000770542
3.23935
8.60672
0.000771591
0.000808986
0.221552
0.000434139
0.00231005
0.000772707
0.000769139
0.609715
0.000770865
3.95032
0.000771763
0.00063296
0.000770694
0.805346
0.00293117
0.000771339
0.000765598
0.000770644
0.000770893
0.0169235
0.000772782
6.11445
0.000770782
0.201787
0.239217
0.00372373
0.000771636
0.311708
0.851575
0.000770654
0.22496
0.0983469
0.00381834
0.00076948
0.000770835
0.720093
4.24964
0.191578
0.0584915
0.000770474
0.000771579
0.00534171
0.00077112
3.20403
0.000771009
0.000770263
0.00317225
0.0254331
0.000770662
0.000771581
2.27656
0.000771581
0.00077146
0.000771415
0.000771581
1.248
0.752866
2.6743
0.000771581
0.000771172
0.000771546
5.97921
0.000174979
0.680235
1.82179
0.00301474
0.00077125
0.000771335
0.000770634
0.00077158
3.54142
2.89908
0.00077158
0.000770841
0.00077115
0.000770658
0.638608
0.000771581
0.716333
0.000771581
0.754788
0.00264798
2.79962
0.000771586
0.000771044
0.000771581
0.000781627
0.000778135
0.000785808
0.000771562
0.612107
0.000784445
1.60613
0.537956
1.68933
0.000771429
0.0007707
0.000771611
0.000770683
0.000749424
4.69621
0.000771015
0.000770735
0.000770659
0.79711
1.28808
3.37374
11.3991
5.63031
0.676165
0.00394755
36.9823
0.000751426
0.600187
0.000764227
0.000768541
0.00356935
0.181907
0.604957
0.00734803
0.000767645
0.673664
0.885189
0.000770435
0.000770418
0.000772272
0.000774155
0.000771064
0.00077015
0.00235728
0.293486
0.0007743
2.20727
1.21382
0.000770716
0.000771581
0.000771581
0.000771767
0.000770482
0.000770352
0.000773532
0.00355613
2.1061
0.000783262
1.4346
1.02716
0.000771151
2.36134
0.727515
0.000769788
0.00212227
0.872722
0.000460454
0.00240481
0.00229708
6.98767
0.890796
0.000770062
8.52244
0.000770341
0.000770805
0.438385
0.000770419
0.000770012
0.00076983
0.000771586
1.52207
0.000775392
0.00076891
0.000769363
0.000771581
0.000770606
0.000769075
0.000770601
0.000769393
0.819804
0.000770461
1.30014
0.000771667
0.000843228
0.000784573
0.000770911
46.2925
0.000769606
0.000768685
0.531494
0.0236316
0.000771836
0.000767438
0.000188073
0.0144637
0.290961
0.00096494
0.000771581
12.7493
0.000770736
0.000771003
0.000770937
0.159311
0.000770291
0.000771072
0.00077171
1.12746
0.00207817
0.000771219
0.00215061
0.000770394
0.828319
0.00302518
0.000770759
0.228492
0.000771599
0.000770957
0.000770451
0.000770619
0.000770803
0.000771104
0.0022789
0.000770498
0.000771003
0.000831679
0.82488
4.95099
0.000774145
0.000785802
0.00364285
0.000773729
0.222943
0.588197
0.0602105
0.000695772
0.000771229
0.00222092
0.000771933
0.000483803
0.000772204
0.967834
0.512593
0.00270003
0.658907
0.95351
0.000769689
0.000771498
1.05089
0.000770371
0.000770797
0.0539024
0.00258741
0.000769787
0.000770985
0.000274203
0.000771443
0.000770069
0.000769909
0.000771581
0.000770928
0.83962
0.000771215
0.000771078
0.000771549
0.000771617
0.000771579
0.169149
0.286265
0.0033639
0.000771365
0.00197708
0.00534133
0.000771006
0.000770523
0.00077073
2.79242
0.654207
8.15465
0.000770777
3.99455
0.000771036
0.000771437
0.300509
0.547987
0.00077044
0.00077
0.000771581
0.000769874
0.000771044
0.000771429
0.00077048
0.000770306
1.41333
0.087372
0.92947
0.000770948
0.000770958
7.47773
0.000771048
3.47887
0.000770678
0.00196238
0.00076986
0.000771359
0.000770743
7.76099
0.131585
0.000759691
0.000657558
0.000769866
0.000771581
0.000193859
0.000771852
1.09319
0.00232187
3.71227
0.576117
0.00077158
4.17287
0.000771581
0.000770828
0.000771581
0.000771581
0.00077072
0.000770521
0.780349
0.000771601
0.00579303
0.000771581
0.000684014
0.000770297
34.6036
0.000770207
0.000772081
1.49827
0.767088
0.000770406
0.000770811
0.000771342
0.000771217
0.0689776
0.000771716
0.760883
0.00076892
0.0007711
0.00846702
3.70044
0.000769721
0.000819885
0.000771073
0.000625744
0.000771581
0.000771581
9.09536
0.000769956
0.000771581
0.00205705
0.00077158
0.000770694
0.000770777
0.000771601
0.000769999
0.00591694
0.00077106
0.000774789
4.1294
3.50611
3.84017
0.000771043
0.000770622
42.2569
0.00077072
0.000790612
2.89769
0.000770092
0.18518
0.22017
1.21672
0.715167
0.000769413
0.000770801
0.0007712
0.000771496
0.000771414
0.635504
0.000771582
0.610708
0.000771816
3.66216
0.0188341
0.000771212
1.74531
0.000770639
0.00077087
0.00100466
55.924
0.899143
0.000771581
0.502344
0.000769685
0.000771581
0.000770109
0.000770173
0.000769955
0.000771581
4.14981
0.655152
0.000823153
0.000771395
0.000774026
0.000770721
8.84485
0.00077158
3.59226
0.000770699
0.000771581
0.000760089
0.00261036
0.000771618
7.58486
5.11202
0.000769955
0.000769588
0.000770657
1.58278
0.000769949
0.000770995
0.000770847
1.61063
0.0007714
0.000771581
0.000776352
0.665791
3.88568
1.11756
4.3669
1.6869
9.45709
0.000770766
0.000769397
0.000770118
6.20249
0.000769976
0.000770246
3.3442
0.00147306
0.215664
0.000770143
0.00077014
0.697191
0.640991
5.18517
0.000770981
0.00077005
2.8933
78.56
0.0118652
4.1942
0.148869
0.000770479
0.000769788
5.83978
0.000770926
0.000770393
0.00254071
4.43289
0.00187286
4.08125
0.713397
4.22151
0.000770912
0.364858
3.72488
0.000770298
0.000770304
6.30551
0.000774586
0.000770857
0.00077021
0.000771232
0.000779638
0.00996282
0.000775068
4.9005
0.000770811
0.000771581
0.000769819
0.000757797
0.00164502
0.114062
0.000771153
0.000772122
0.000771349
1.78969
4.88821
0.00077103
0.000770162
0.000695693
0.000770697
4.12498e-08
0.000771038
0.000771529
4.30767
0.000772992
2.2545
0.000771091
3.26679
0.000770919
1.85557
1.98831
3.8932
0.000770758
0.000782475
3.21599
0.00077208
0.00077051
0.000770232
0.000770846
0.0428674
0.195332
2.5217
3.64018
2.96289
8.48498
0.00249827
5.78187
0.0026855
0.00282788
0.000771707
0.00077173
0.00352233
0.000771353
0.00213367
0.000771116
0.000770419
0.000769927
0.00262883
0.000770689
0.000778812
0.00250337
0.000770948
0.000770661
0.000770893
0.000771899
0.000769738
0.000770716
0.495733
0.000771217
0.00077036
3.43004
0.000770922
5.9097
5.79474
0.666309
6.51
0.655236
6.60317
0.728573
0.000771581
0.000771575
0.000771186
0.579387
0.000771538
2.10385
0.000770843
0.000767241
0.0007706
0.000770928
0.000771944
0.000770989
0.000771766
0.000753005
0.000771382
0.770188
0.000771317
0.000770764
9.12091
0.000774022
0.000770388
3.07187
0.554735
0.000770958
0.000771554
0.000770785
0.963568
1.83781
2.47775
9.11593
3.20769
0.000771501
0.000770318
0.000770708
0.000768811
0.000771462
0.00077086
0.00241756
0.000770922
0.000770782
0.000770771
0.000769004
0.000770448
0.000770633
0.000770264
0.000772214
1.75392
1.42131
3.97863
0.0415018
0.256239
0.000771269
0.000771001
3.89093
0.000708317
0.000771046
4.286
0.00311665
0.000770038
0.000770686
0.00471007
0.802465
0.0768013
0.000770874
0.000771581
0.00281532
2.20925
0.000771578
0.000770661
0.000771581
0.0354022
10.5214
0.000786419
0.00311033
0.000770611
0.000771448
0.000771507
0.000770751
0.000770255
0.000771206
0.000770938
0.000771295
0.000771471
0.000771223
0.000771049
0.000770187
0.000771056
0.547951
0.000772047
0.0269171
4.23909
4.1178
3.51673
0.666382
0.726817
0.979764
1.09542
0.00077158
0.000769379
0.000810355
0.0698472
0.323991
0.565817
11.6192
3.04914
3.33886
3.47334
5.42086
0.0022971
0.00116563
0.000782079
3.79038
0.299233
4.70452
0.000770726
0.00077164
0.000770123
0.000769456
0.607591
1.03317
0.0143601
7.09389
0.00567909
0.000770353
0.000771124
0.000771482
4.18258
0.00147583
0.000768042
0.000771142
0.965614
0.000215751
0.000771021
0.000771038
0.000772887
0.000770524
0.000770171
0.000771793
0.667342
0.000765682
0.000770149
0.000772965
6.19767
0.000771845
0.000278713
0.0007878
0.000769779
1.55388
0.000771006
0.000773153
0.000770714
0.0798229
0.267142
0.768074
0.00077094
2.20128
0.000770752
0.000770871
3.21294
1.14614
1.0508
3.71085
0.866747
0.000771581
6.59785
0.000771722
0.000771581
0.000771581
0.000774887
0.000771581
0.127134
0.000771118
0.428762
3.35997
0.000770858
0.000770944
0.00253596
0.000772093
0.782274
0.000770635
0.00766607
0.000770478
0.000770113
4.35977
0.000771334
0.00077094
5.65094
0.000771071
0.000771037
0.000770142
9.67802
1.77617
0.000771231
4.19201
0.000770945
0.000769576
0.0007711
0.000771613
0.000771661
0.000770778
0.000770905
0.000771581
0.000771228
0.000775183
0.0246421
0.000771843
0.000218661
0.000767884
0.00489951
0.00305393
0.169066
5.58287
0.000771581
0.000771581
0.000770765
5.15652
12.9513
0.000771581
0.000773269
13.2647
7.32338
1.2873
2.14435
2.60462
0.000770448
0.56756
0.594982
0.000764287
0.000771583
0.000770732
0.00044032
0.793
0.000734938
10.1188
0.000770504
0.000771064
0.41361
45.5287
0.000769627
9.12727
8.57236
0.000770267
0.000768871
0.00284298
0.000770868
8.4676
0.00269023
0.00280712
0.00310594
0.000770545
0.000770576
0.545731
0.010241
0.000781941
0.00077098
0.00077066
0.000771293
0.000770615
0.000770196
0.625615
0.471699
0.383205
0.000770793
0.000770547
0.000770965
0.000770353
0.000770554
0.000770804
0.000780988
0.000778528
0.438325
0.000770765
0.495236
0.626839
0.000769765
0.000768827
0.000769887
2.61357
0.000770572
0.000436967
2.1796
0.771433
0.000757943
0.000770812
0.000769983
0.000771503
0.000771001
2.3054
0.000775649
0.000769843
0.170295
4.31833
0.000768895
1.8814
0.000758928
0.880378
0.000947178
0.000770173
1.22341
0.000770817
0.000771439
0.00076834
0.000771085
0.000771542
0.000770233
0.00368863
0.000772647
0.0013411
0.00077444
0.151943
0.000773487
0.000770926
0.000657474
0.000775562
0.00326817
0.557648
2.15311
0.000776473
0.0357905
0.0024789
0.000771659
0.00384359
0.830962
5.79405
0.0029885
0.250344
0.000770276
0.00380705
3.61079
0.000770768
1.06686
0.977286
1.73128
0.0028457
0.00311281
0.415506
0.000769814
0.000778803
0.00397069
11.9619
0.000692695
0.000770932
0.0689665
0.000777826
0.00076986
0.0029365
1.25198
9.84367
0.000771165
0.414455
0.000770471
0.414585
0.000754687
0.000771524
0.988389
0.000768676
0.00312367
6.43524
0.134276
0.00291134
3.98519
0.00077222
0.0891937
0.000768979
0.761174
0.776545
0.0111706
0.00078033
0.000963678
1.75556
3.64564
2.90823
0.000778567
0.000777561
3.74547
0.000772
0.000770355
4.87697
3.5474
0.00283904
0.00077106
0.000770405
0.000770045
0.752081
0.000771223
0.000771373
0.000770261
0.0954678
0.000772442
0.000771569
6.64908e-05
0.00326501
0.000771176
0.000770559
5.03276
3.76185
0.000768352
0.000771114
0.838451
0.409527
0.000769057
0.343556
0.00366687
0.00302299
1.70942
0.00077037
0.205681
0.00232522
0.000771456
0.000774749
2.30615
0.0251221
2.05529
0.000770176
11.1296
0.572852
0.0061409
0.474592
0.950489
2.47602
2.69553
5.88589
0.473997
4.04845
0.667477
0.000770496
0.000785396
0.700436
0.000771971
0.000769812
0.638524
0.255783
0.000769912
0.000769313
0.000771447
0.000771643
0.0027852
0.63266
0.000771326
0.224678
0.000770372
0.000769617
0.481087
0.792893
2.05996
0.000770771
0.972777
13.3757
1.9634
7.679
0.000772905
0.000771006
0.000772261
0.000770147
0.00228166
0.0028444
0.000770872
0.000770942
4.13004
1.94832
0.00383066
8.62449
0.633142
9.33502
0.00246743
2.22538
0.000781157
3.50021
0.00238839
0.642519
0.000776647
0.000771581
3.84044
0.000771581
0.000771591
0.000770218
0.000771581
0.000771581
0.00189507
0.625448
0.0984828
0.000771581
11.4512
7.9048
0.00186847
0.00077064
0.000770488
0.000771443
0.000771002
0.123924
0.000771552
0.869377
0.868868
0.000769827
0.000771314
7.15011
14.1791
1.22978
0.787449
0.000779862
0.00313479
0.733274
0.000771551
0.000771579
0.000770773
10.7322
0.00077103
0.000770455
0.000770587
0.000771041
0.00213532
0.00078036
0.000771308
9.99123
0.00130203
0.00407784
0.000766954
0.66805
0.748023
3.98779
3.74235e-05
0.000771709
0.606709
0.000771529
0.000770823
0.00077698
0.875296
0.000770709
0.00222051
0.778929
0.000771581
0.000770037
0.602097
0.000771417
0.000770725
5.13681
0.790271
0.000773
0.799719
0.000770869
0.000770942
0.000770628
0.000771556
0.00077041
0.994289
0.000770641
1.09081
0.00242253
0.000771581
0.00077158
0.391866
0.000777748
0.570228
0.00243664
0.000771581
0.000770373
0.000771607
0.000771174
0.0018344
0.661805
0.000770479
0.0021676
0.677047
0.000770323
0.000771581
0.00196271
0.000774021
0.000771595
0.00201604
0.00191819
0.000770814
0.000771604
2.89738
0.606878
0.0021304
0.621019
0.755476
0.000790009
0.803802
0.000770379
0.000769929
0.000770404
0.000770776
0.000771581
0.000794647
1.41946
0.000771609
0.00243289
3.17128
0.0028384
0.000768918
0.000770095
0.8543
0.0781081
0.00228651
0.61217
0.000769938
0.108061
0.000771508
0.000771655
0.000771449
0.000777662
0.559706
0.000771455
0.753909
0.000776095
0.000771581
0.000771581
0.000770042
0.00213769
0.00182551
0.621617
0.995478
0.000771581
0.000771581
1.39251
1.70639
0.000771563
0.000771102
1.15117
1.07314
0.000116387
0.783171
0.0004687
0.000771621
0.000771575
0.00077158
0.000770437
0.00192111
0.831371
0.897016
0.000771586
0.000770538
0.00201835
0.000789121
0.61934
0.000771562
0.000770798
0.00077078
0.00216888
0.00193946
0.00287011
0.000770661
0.00232702
0.730235
0.000770882
0.000770592
0.000744938
0.720269
0.000784669
0.000770567
0.000769985
0.000770375
0.000771581
0.718936
0.00250894
0.000771604
0.000771581
0.923679
0.00077089
0.000771299
0.510192
0.51596
0.00227855
0.000770177
0.000771578
0.00224354
0.000771581
0.000771444
0.000768591
0.00077733
0.000771479
0.000771581
0.000771553
0.000771503
3.09629
0.000771581
0.000771329
0.0032198
4.71154
1.03654
9.66139
4.98101
0.000769347
0.512207
3.51896
2.85427
0.00197782
4.16363
0.000775296
0.657071
3.36168
0.142492
3.99413
0.00302184
3.58091
0.104433
1.05657
3.30236
0.000770306
0.000771573
0.02393
0.000770868
9.33679
6.85294
0.361086
1.93521
3.00785
7.3653
13.5119
0.773569
4.83535
0.000772215
0.000770181
0.000771686
3.18054
5.36841
0.000771231
0.00249653