/*--------------------------------*- C++ -*----------------------------------*\
| =========                 |                                                 |
| \\      /  F ield         | OpenFOAM: The Open Source CFD Toolbox           |
|  \\    /   O peration     | Version:  2312                                  |
|   \\  /    A nd           | Website:  www.openfoam.com                      |
|    \\/     M anipulation  |                                                 |
\*---------------------------------------------------------------------------*/
FoamFile
{
    version     2.0;
    format      ascii;
    arch        "LSB;label=32;scalar=64";
    class       volScalarField;
    location    "0.5";
    object      epsilon;
}
// * * * * * * * * * * * * * * * * * * * * * * * * * * * * * * * * * * * * * //

dimensions      [0 2 -3 0 0 0 0];

internalField   nonuniform List<scalar> 
32842
(
0.0279416
0.0279254
0.0279603
0.0279566
0.0401141
0.0279451
94870.3
10895.2
0.0279645
0.0279432
611.331
1347.43
0.0279629
0.0279645
0.0280962
0.0279669
0.0279471
0.0279352
0.0279659
0.0397589
0.0413787
0.0448404
0.039372
0.027965
0.039775
0.0279576
0.0279461
0.0360052
0.489389
0.0279836
536.212
0.156309
381.944
0.0279621
655.825
12417.1
0.0426267
0.0280683
0.0280017
0.0279351
0.0279499
0.0411403
0.0279639
0.0279645
0.193681
0.0279733
353.046
0.027981
0.040714
0.778448
1005.17
0.0279643
0.129824
13.1177
0.0279637
0.13414
0.0279508
66.1543
0.0279646
0.0279645
1814.42
0.132795
0.121096
0.0411675
0.0279666
191.862
0.0279638
0.11609
0.17116
0.0280742
0.0353346
13.7087
0.150917
0.0279645
0.0279626
0.0279376
1.23801
0.0279623
0.151197
328.49
0.0399475
0.0279613
0.0279621
0.139161
0.103883
0.0279634
0.0279631
0.103286
0.244764
0.0279367
0.0411384
0.0408407
84.8728
0.0279985
0.0279474
0.0279659
0.156843
0.0280354
0.108432
0.0279645
0.0279645
0.0473309
0.0281322
62.7897
0.153433
0.164805
347.691
0.0268121
0.136388
0.0279498
0.0279399
0.0279477
155.993
0.027946
0.0281451
0.0408648
0.141977
45.2201
0.0280968
0.0279701
0.0279382
0.0279453
0.444221
0.0279551
0.0262978
0.154135
0.179225
0.0279515
112.28
0.0279573
0.0279614
0.0283345
0.0515152
0.142426
0.0509376
0.0279396
0.00335931
7.50519
0.0279613
0.0279514
0.142944
0.0279499
0.144989
1.05118
0.02796
0.0279531
1629.82
0.0279544
0.0279645
0.0279389
0.0296324
0.339708
0.0390448
241.132
0.0279215
0.0279637
0.0279605
0.0279614
0.027949
0.0279461
0.0279451
0.0279615
0.0390952
0.0279622
0.0279425
0.0279774
0.0279615
0.0279584
0.0280898
98.2536
2.93582
0.0475004
28.0837
0.0279645
0.0415696
58.7088
0.0279691
0.0281664
0.0279642
0.027959
0.0353864
0.0279577
0.0279531
0.0279415
0.141291
0.0279506
0.148807
0.0279491
0.027951
0.0279646
0.0279636
0.18571
0.173579
0.0279626
0.167896
0.0279536
0.0279799
0.0279419
0.15531
0.0279387
0.0279824
0.0281361
0.389556
230.195
112.408
0.0716457
0.0279466
0.0413816
0.162731
0.0279294
0.0279549
0.0284109
49.9856
44.1376
0.0279423
0.0279645
0.0279439
0.0279705
0.0279506
0.0279588
0.149027
0.0279505
0.027933
0.0279466
0.0464151
0.192016
0.0279648
0.162914
0.0279531
158.687
0.0279358
0.0279474
0.0278917
0.0279461
180.158
0.0407376
0.0410817
0.094869
0.0279291
0.135188
0.668502
0.0280172
0.0279423
280.463
0.027968
0.0279702
0.127047
0.0279296
0.0279463
0.0280463
0.0279645
0.0279464
0.0279338
0.158797
0.0279723
0.0279466
0.0279532
36.6372
0.0279444
0.0279726
0.0279448
0.0279643
0.0279645
0.027936
0.200389
0.027943
0.0279345
0.0279742
0.0280809
0.0279649
0.0279385
0.15938
0.027948
0.194454
0.027945
23.7423
0.0279634
0.0463497
0.0279487
0.0279427
0.0279446
92.3763
161.121
0.0279643
0.0279416
0.135245
56.8651
0.0279645
0.0413681
0.0279631
14461.6
0.0279648
0.171173
88.2097
0.312084
0.0275266
0.171881
0.0279412
0.0279774
0.0389131
1393.17
0.0280203
0.0279396
0.027986
0.027959
0.0279645
0.0279645
0.0279644
0.0279886
0.130678
0.0280058
0.0279645
0.136862
0.0279442
0.0279644
0.0279284
0.0279499
223.657
0.0279575
0.0279666
0.0279608
0.350107
0.0279235
0.0324728
0.0279649
0.0279239
0.0279655
0.0279646
0.0279452
0.0279643
0.0279679
0.153439
0.027963
0.0279645
0.0279626
0.0279532
0.0838157
0.171493
0.0279645
0.0279521
0.0279683
0.0279471
0.0328891
0.0279623
0.132902
0.0279644
0.0279568
0.160127
0.116386
0.144621
0.0282931
56.7628
0.0279541
0.156457
0.0279466
0.0279081
0.045195
0.0279607
0.0279423
0.0279336
0.0279645
0.0279644
0.0279692
0.44988
0.027938
0.0279878
0.0279643
0.0279637
0.0427057
0.0385537
0.0279623
21846.1
0.0279588
0.048449
0.0279634
0.137729
0.0455655
0.0279645
0.012698
0.0391774
0.0279523
0.129476
0.156167
0.0279708
0.0279322
0.0279649
0.0279609
0.0279381
0.0279408
0.0279534
0.0279312
0.0279578
0.0279486
0.0279506
0.0279421
0.0279645
0.0279461
0.0279601
0.0279692
0.0279353
326.469
0.0279645
0.0279616
0.0279971
108.749
0.0279516
0.0279657
0.0485803
0.0279474
0.0427587
0.176742
0.0279565
0.0279645
0.0279358
0.0279575
0.0279477
0.0279492
0.0279575
0.027966
6134.13
0.02796
0.14951
0.0279575
0.0434306
19163.8
0.0279568
0.027972
0.0279628
0.0263195
0.0279647
0.0279961
0.0279645
0.0279538
0.150113
0.0398024
0.0784401
0.0279455
667.991
163.931
0.143066
0.0420935
0.768977
0.0426051
0.14091
0.0280187
0.0279538
0.0337672
0.0279648
0.0381482
1.57051
0.027965
0.0279679
0.0280323
111.117
0.0375365
0.0279701
0.0279326
0.0404183
0.0279431
0.0281216
0.0280036
0.0419771
0.0279616
0.027964
0.0279644
0.0279067
0.0279563
0.139345
0.0279652
0.0279903
0.0279645
0.0421333
0.040141
0.0279645
0.0279647
0.13894
0.148032
0.0279631
0.0279648
0.0279645
0.0279645
0.0399812
0.0279555
1.6712
0.139168
0.0279521
0.0279649
0.109878
0.0284356
0.0279645
0.0437441
0.0280889
0.0340742
0.0288466
0.140927
0.041485
0.175417
0.137275
0.0310609
0.0279837
0.0441113
50.9873
0.0279225
0.14663
0.0446674
0.108807
0.0376215
0.0279348
38.0092
0.0437638
0.0279549
0.15138
0.0279819
0.146586
0.0279591
0.0279648
0.0459072
0.048824
50.6573
8843.76
78.6412
47.4789
33.1051
18.6491
88.0322
0.144639
0.0279375
0.0279462
0.0279585
0.140061
37.8589
0.121984
0.48294
0.0279478
0.027951
0.0377315
3.78327
0.0279606
1566.5
95.7388
0.0283095
434.975
0.0213194
10.3285
0.0280359
0.0279645
0.0279425
0.145645
170.981
0.0279645
0.0422999
0.0279948
0.0659343
0.171486
0.027956
0.0279493
0.0279479
0.0279443
0.466642
0.0859051
0.0279643
0.0279645
0.0279289
0.150692
0.0695074
0.113062
0.0279398
0.0279398
0.0279645
196.666
0.137511
0.179728
260.097
0.173523
0.0279526
16.5864
0.173596
0.02795
402.632
0.0279645
0.0400201
0.0279645
0.0329215
0.0405545
0.0391981
0.0279645
0.0279595
0.0279706
0.0279618
0.138927
0.0425096
0.0279647
0.0279667
206.878
0.0279477
0.0593772
234.963
0.119938
0.0280177
0.0279418
211.456
230.26
1912.58
0.0279717
92.4245
0.0979145
0.237681
0.0283073
0.32675
0.0279647
0.0279324
0.027965
0.0279645
0.0279645
0.284358
0.0403834
0.0279581
0.0279644
0.0279543
0.0279645
0.0278952
0.027924
0.0279444
0.184647
0.113219
0.027952
0.0279644
0.212486
0.286501
16.8512
0.027975
0.225662
0.027945
0.0279644
0.0280862
256.995
0.153349
0.0279546
0.0426511
0.027959
63.9851
0.0279641
0.0279645
0.0279647
0.0280093
0.0909033
0.0279645
0.0279645
121.278
21.5918
0.027842
0.0279959
0.0279365
0.173443
0.102044
0.0279634
0.148423
0.0420146
0.0279644
0.0279409
263.855
224.346
0.0279645
0.109309
265.255
0.0279568
0.0785387
0.027956
0.0279645
0.0441725
0.0444551
0.0291366
0.0279442
238.196
0.0279551
98.8257
0.0279371
0.0279579
275.447
257.114
3.71391
0.488037
0.0279645
0.0279787
0.0384333
0.0394593
263.23
517.555
240.415
255.721
0.0279256
0.028278
223.045
0.0279342
4.76084
0.0279661
0.0280586
0.129162
806.804
0.0279971
0.0279846
0.0279305
0.0279331
0.0279788
0.0279641
0.0279608
0.0279645
0.0279645
0.134599
0.0279645
0.0280533
0.0279645
0.0870711
0.0279387
0.0279557
0.0279515
0.163244
0.0279484
0.0279787
0.0279409
0.027936
0.0279622
0.0279647
0.0303212
0.0279818
0.0279753
0.0279656
0.0279735
0.0119173
0.0280396
0.0434993
0.0333147
0.0419415
0.0279603
0.0452202
0.0507023
0.174302
0.0279673
0.0279577
0.0427139
1.60551
0.0279645
0.184857
0.0435281
0.0279645
0.0279645
0.0204698
0.0279998
0.0280143
0.127291
0.0279645
0.0279525
0.0279643
0.0429114
0.147975
0.027973
0.043974
0.0279482
0.0382833
439.909
138.934
0.0409365
0.0279546
0.117851
0.0279466
0.0279645
0.0279606
0.0279536
0.0280991
0.0278838
0.108288
0.0279616
0.0282567
0.129565
0.044592
0.0279509
0.0280092
0.0279634
0.115504
0.0502981
0.142278
0.0279545
0.176797
0.189321
0.041469
0.0279646
0.0380312
0.0279611
0.0428719
0.0279698
0.0279482
0.0412422
67.9591
0.151584
0.0279658
183.682
0.028017
0.178344
0.027962
0.0279344
0.0279537
0.0279618
0.0279541
0.0280969
0.0279546
0.027933
0.0279483
0.0279619
0.0279691
0.0279549
0.159845
0.0282281
0.123581
0.0279503
0.0279585
0.0419252
2.45526
0.0279552
0.0279545
0.0411436
0.0279344
0.0280409
0.028
0.0472695
0.12363
0.0279645
0.0279355
0.0280714
0.0280019
0.0279398
0.0279679
0.0279485
0.0279645
19710.8
0.02798
3.45856
0.027944
0.0279652
0.0279026
0.0279139
0.0404323
0.0279461
0.0279645
0.0279645
0.0279369
0.353903
0.0279645
0.0280322
0.145846
0.0280183
0.154005
0.0279333
180.274
0.0279663
0.0279647
0.118055
77.3331
0.0279024
0.0279433
61.1631
0.044605
0.027977
0.0279675
0.0279644
0.0279706
0.0279685
0.153819
11.0591
0.146345
0.0279645
0.140321
0.0279653
0.0279315
0.0279617
0.0420882
0.0334655
0.0279335
0.0279503
0.0279345
0.0279499
0.0280118
0.0279645
0.0279506
0.02795
0.0279075
0.121448
0.0440495
0.0279644
0.223383
0.539065
0.0278958
0.0215469
0.0323352
0.0279645
0.027935
0.0279231
0.187353
0.0279645
0.0279644
0.156799
0.0434797
0.0279358
0.0279644
0.0279645
0.0279698
0.0318196
0.393127
0.0279505
0.02794
0.182117
0.0280177
0.0280056
62.961
0.0279402
0.0279427
0.0279649
0.0279622
0.156665
0.028019
0.0279224
0.0279338
0.027991
0.0445376
0.0279645
0.182304
0.0400784
145.333
0.0279644
0.0279645
0.0279662
0.0279682
0.0279658
0.0279645
0.0293741
238.026
0.0372878
0.113773
0.0279644
0.0386445
0.0279574
0.0279625
0.0279873
0.0279645
0.0279875
0.0279409
0.0279645
0.0279764
0.0279459
0.0279243
458.897
0.0279566
0.115436
0.0279635
0.135448
0.140354
0.0279645
0.0390953
0.135824
284.384
262.351
0.278904
0.0279702
0.0279649
0.0279645
0.0279649
0.324908
0.0279649
0.2678
0.341
0.204738
0.239844
0.0335304
46.7011
0.0279645
4.07022
6947.37
0.0279361
170.043
0.00741491
0.0279591
0.0279641
0.0279553
1.65337
0.027926
0.145111
0.0408866
391.675
0.19791
0.130713
0.0482704
0.0279645
0.027946
0.0279441
0.0279588
0.0280259
0.0279382
0.0279482
0.0279516
5.44524
0.0449003
0.0279483
87.0129
0.027961
0.027964
0.0279538
0.0279577
250.377
5.24867
0.027976
0.027947
0.0279752
0.146814
0.209964
0.027962
1.43436
0.134613
14.8432
0.0279606
0.027937
336.855
0.134047
0.0279425
0.0280142
0.0279928
0.0279246
27.0622
0.0279421
0.185539
0.0281049
0.0279635
0.0279787
0.0279648
0.0306671
1.30961
0.0279434
0.0279447
566.945
0.241039
0.162791
0.0279583
21.5218
224.907
0.0279846
0.0279647
0.0279758
0.116462
25.7519
0.0279549
0.0400251
4.03869
0.027966
0.0342379
3.06784
0.027953
0.0279465
0.0280784
0.0279518
143.127
0.0279601
0.027916
0.109063
4.13639
0.0347324
0.034451
5.40346
0.0279374
133.092
0.195385
0.0279604
0.11987
0.257379
16.3975
1.96301
13.5677
10.5943
0.0279655
4090.06
0.160804
0.0258685
0.027965
0.0279329
0.027987
0.0279532
0.027952
0.0279627
0.027939
199.639
0.0279433
0.0279351
0.120578
0.0279552
0.0280131
250.456
0.137169
0.0471981
0.0329985
0.0279643
9.82807
144.478
0.156325
0.0279511
0.0279602
0.0279618
0.773498
129.387
0.0470666
0.0280093
59.8154
0.0279472
4.59464
0.0290036
0.0279508
0.700304
0.0441293
0.0279507
0.375416
0.0279612
0.0279507
2.42631
154.953
46.1681
0.0279404
0.0279377
0.0279645
0.0279404
0.028208
0.0336517
4.2579
0.0279645
0.0279533
37.5591
0.0279562
0.027973
9.43972
0.0279437
17.4244
25.1002
0.0279504
0.0279599
24.612
10.9594
18.7495
12.9905
0.0279657
115.022
39.1379
0.0500927
92.6503
0.015181
0.125919
0.0279476
0.0279687
0.0272812
4.6651
0.0500122
0.0279341
1.83103
0.167521
8.15827
1.12608
0.0279645
0.58401
2.26536
0.475083
0.0279645
0.0279704
13.7397
0.0279384
0.0280697
0.158161
0.0283551
122.748
4.41597
0.0574405
0.0333632
0.0279617
0.0279477
9.48731
0.35502
0.0278264
0.0279888
0.0279645
0.286695
0.0280469
0.180245
980.125
0.0280514
0.639172
67.4514
2.32803
17.5344
34.897
1373.44
0.0281396
0.138812
25.1848
0.976707
0.0371905
0.027942
17.9229
0.0279411
0.0270754
0.0508542
0.139124
0.156113
1.18439
0.0451273
0.1257
6799.6
0.0279554
31.3712
0.047736
0.125858
61.0549
0.0279474
0.135371
0.201204
50.0616
0.0504612
0.0279646
0.132599
0.0279644
0.0410863
3591.48
0.0393371
0.0279543
0.161462
0.695346
0.0279795
103.542
0.0279645
0.0279831
0.0279638
0.0279547
69.878
0.0387129
0.0279638
0.52138
0.209349
0.0279413
0.0279959
7.48526
0.0279772
0.0279628
0.0279588
20.1203
7.76623
0.0279484
79.0235
0.0279645
69.5525
0.14537
0.0286947
0.155751
8.75808
0.187222
0.0668945
0.0279186
0.541697
26.7386
187.713
150.821
165.287
0.0414712
11.5689
0.0279257
113.377
0.0280237
0.161491
0.0280055
5.59867
0.027972
0.0409505
0.0339
336.52
13.5005
0.0408071
0.0279571
102.024
0.169697
0.0279699
0.0279645
64.9825
0.36923
0.0278934
0.126108
0.0279679
1.79784
2.76023
0.125786
0.0279261
0.0279392
6.36202
287.558
0.0421501
0.0279475
0.0448049
0.0279624
0.0279258
20.7027
0.0279644
0.145846
0.172098
0.0279346
6.71703
0.0279496
351.089
535.733
0.0279645
0.0528533
19.405
0.0279646
0.0279645
0.0279255
0.363489
0.0279494
0.0280501
0.0279928
0.0457329
0.0281062
0.0284816
0.0279578
0.0279355
0.0279486
0.0279399
0.0279493
0.0279191
0.0279212
0.0279495
0.0279568
21.0924
0.0280136
0.0279588
167.869
0.0141354
0.0279711
0.0279647
0.0278484
0.0279645
0.0444576
6.99203
0.0279818
0.0279208
0.0280938
0.0282462
0.44577
209.257
0.0502803
0.179316
56.7285
0.0279608
0.027983
107.341
72.4712
0.0420735
0.119232
0.02792
0.027996
458.606
0.0425008
161.903
0.0438456
0.0462409
0.0372094
0.0279784
111.43
0.0279493
0.0279651
0.0464703
82.1991
490.409
0.194609
69.8319
0.0394027
0.0384801
0.0803965
0.0278463
225.535
26.1391
0.038973
109.732
0.0279646
261.582
0.0279744
0.0107438
0.0280874
5.66544
0.0279598
56.211
0.0280187
0.0279509
0.0457921
4.82093
16.3711
0.0192692
0.0279513
0.0279702
17.7144
0.0279583
0.0279645
820.735
0.0279645
12.2769
0.0278862
0.0279787
0.028299
0.0279664
0.0279482
0.0279645
14.866
0.0279585
2.44248
0.313894
0.0279465
0.0279549
0.0279273
0.0279702
0.0279389
0.0279657
47.0729
0.0279752
0.0279789
0.0279645
0.0457889
0.190919
0.0279872
0.0280881
0.0279405
192.825
0.0278337
0.0279619
0.0279637
0.0279489
0.0279622
0.133403
0.027946
0.027954
0.0279443
317.282
0.0279263
0.0279289
0.0279593
0.134742
0.0280738
0.0282172
0.0182474
0.027989
0.0282231
0.0279038
4.09254
0.0279512
0.0279542
0.026296
1.43129
17.7459
0.0279217
89.0506
79.4226
74.9094
0.0279647
91.055
0.00503021
0.0398074
0.02793
69.3319
48.5487
0.0279848
0.0279493
0.0279292
0.0279568
44.9283
32.952
0.0279654
0.0279578
0.0272757
0.0279397
0.0280913
640.125
0.0279469
208.423
117.001
0.0279646
0.0295978
0.234711
0.0293171
0.0225742
0.0279716
0.0279227
0.162813
0.0279546
110.641
0.027982
0.0291877
0.0279497
0.12417
0.0455851
0.027965
0.0278811
0.0279423
0.0279523
0.014946
0.027979
23.8086
0.0279498
0.0351581
0.0836583
0.0529707
0.027972
0.145008
0.12726
0.0279473
40.158
2.02591
0.0502268
0.0279347
0.0279505
0.141056
5.48515
0.437599
0.244988
0.0279446
0.0279644
0.0552225
0.0279595
2.25809
0.0279561
0.0279383
0.0443231
0.139196
0.0279495
0.0279645
88.792
0.0279645
0.0279681
0.0279604
0.0279645
11.4247
0.124019
35.5241
0.0279645
0.0279611
0.0279763
128.753
0.0271067
607.217
244.218
0.0453787
0.0279633
0.0279657
0.0279479
0.0279645
151.207
184.325
0.0279645
0.0279577
0.0279609
0.0279466
0.157587
0.0279645
0.142858
0.0279645
0.138686
0.0431056
3.61375
0.0279645
0.0279545
0.0279645
0.0281367
0.0280583
0.0281669
0.027964
0.161624
0.0281794
0.98071
5.82992
0.999484
0.027967
0.0279505
0.0279649
0.0279425
0.0284532
88.6331
0.0279506
0.0279542
0.0279476
0.133595
2.58205
129.293
107.171
68.5006
0.146799
0.0528084
2148.92
0.0275876
0.167256
0.0278309
0.027899
0.0492654
0.347903
210.225
0.0739081
0.0278968
0.14736
670.263
0.0279377
0.0279371
0.0282193
0.0279895
0.0279635
0.0279363
0.041218
421.948
0.027984
36.8155
212.467
0.0279452
0.0279645
0.0279645
0.0279765
0.0279394
0.0279375
0.0279841
0.0458495
5.81845
0.0281179
0.578739
27.0542
0.028133
1.02676
0.142513
0.0279972
0.0404895
0.480983
0.0316083
0.0416737
0.0419593
4.18148
0.113618
0.0280107
55.6792
0.0279346
0.02795
0.172773
0.0279491
0.027935
0.027931
0.0279645
40.6047
0.0280048
0.0279217
0.0280061
0.0279645
0.0279514
0.0279168
0.0279554
0.0279861
0.126305
0.027938
0.280669
0.0279786
0.029175
0.0281568
0.0279513
4.40857
0.0279854
0.0279231
0.178011
0.0110974
0.0279842
0.0278949
0.00713124
0.110897
79.711
0.0286652
0.0279645
63.9938
0.0279556
0.0279595
0.0279594
0.255142
0.0279424
0.0279579
0.0279739
16.3721
0.03928
0.0279674
0.0408126
0.0279448
0.12241
0.0459225
0.0279573
0.135379
0.0279647
0.0279549
0.0279512
0.027945
0.0279479
0.0279645
0.0416828
0.0279412
0.0279612
0.0292696
0.120295
13.7601
0.0279962
0.0284
0.0461437
0.0289281
2.08594
0.166252
0.766191
0.029809
0.0281206
0.0416518
0.0279799
0.0275221
0.0279649
23.3151
0.181572
0.042937
0.154208
0.104822
0.0279278
0.0279623
0.0977402
0.0279369
0.0279556
0.161721
0.0420293
0.0279288
0.027955
0.023204
0.0279675
0.0279362
0.0279323
0.0279645
0.0279587
0.128878
0.0279616
0.027957
0.0279741
0.0279716
0.0279644
0.045094
0.153369
0.0459333
0.0279664
0.039773
0.062972
0.0279561
0.0279437
0.0279493
30.4165
0.155574
0.621309
0.0279565
131.761
0.0279567
0.0279681
0.368449
0.182201
0.0279502
0.0280074
0.0279645
0.0279323
0.0279586
0.0279727
0.0279491
0.0279452
0.403804
14.8719
0.109968
0.0279563
0.0279562
131.693
0.0279589
45.4922
0.0279471
0.0392209
0.0279274
0.027959
0.0279489
186.365
0.416178
0.0277934
0.0275551
0.027924
0.0279645
0.0138531
0.0279786
0.0961929
0.0412786
32.6548
0.170227
0.0279645
50.5495
0.0279645
0.0279519
0.0279645
0.0279645
0.0279488
0.027947
0.129694
0.0279714
0.0587365
0.0279645
0.0278329
0.0279464
2932.56
0.0279352
0.0279869
512.869
0.132494
0.0279409
0.0279553
0.0279648
0.0279618
0.569111
0.0279738
0.1309
0.0279304
0.0279595
0.197965
21.7923
0.0279329
0.0272648
0.0279587
0.0295199
0.0279645
0.0279645
166.405
0.0279354
0.0279645
0.044813
0.0279645
0.0279482
0.0279559
0.0279648
0.0279973
0.0624163
0.0279573
0.0283286
0.559538
33.8655
5610.52
0.0279529
0.0279451
2.96852
0.0279475
0.0283113
169.551
0.0279399
231.424
395.346
242.02
0.13864
0.0279201
0.0279542
0.0279632
0.0279624
0.0279702
0.153162
0.0279722
0.161618
0.0279773
127.287
0.117641
0.0279639
211.15
0.0279522
0.0279567
0.0321226
7.22637
0.114426
0.0279645
8.79256
0.0279323
0.0279645
0.0279319
0.0279518
0.0279354
0.0279645
156.357
0.148919
0.0289933
0.0279674
0.0284605
0.0279434
101.191
0.0279645
24.6719
0.0279478
0.0279645
0.0277173
0.0431493
0.0279725
36.2554
161.627
0.0279376
0.0279399
0.0279451
16.5978
0.0279437
0.0279534
0.027953
21.7059
0.0279817
0.0279645
0.0280033
0.143133
100.748
114.672
155.585
2.2329
101.627
0.0279512
0.0279258
0.0280096
14.309
0.0279331
0.0279393
14.4881
0.0353469
0.425237
0.0279365
0.0279402
0.148013
0.161983
146.236
0.0279498
0.0279364
53.4612
1.51699
0.10367
34.6956
0.678508
0.0279404
0.0279575
40.0971
0.027954
0.0279388
0.0426694
43.001
0.0407213
264.136
0.14113
64.58
0.0279545
0.521107
24.3014
0.0279401
0.0279399
61.2119
0.0280257
0.0279546
0.027934
0.0279648
0.0286902
0.10771
0.0281881
6836.65
0.0279508
0.0279645
0.0279298
0.0277417
0.0369777
0.343691
0.0279617
0.0279853
0.0279646
4.60894
121.436
0.0279626
0.027949
0.0266299
0.0279539
0.0144107
0.0279546
0.0279694
142.243
0.0282709
243.539
0.0279524
10.8674
0.0279541
2.97079
3.28482
17.2921
0.0279493
0.0289914
4.59265
0.0279888
0.0279418
0.0279416
0.0279518
0.00455049
0.0497179
6.0337
88.2836
13.5063
178.672
0.0414988
185.476
0.0425638
0.0445205
0.027974
0.0279755
0.0452048
0.0279657
0.0392828
0.0279586
0.0280376
0.0279426
0.0432073
0.0279478
0.0287528
0.0425853
0.0279538
0.0279424
0.0279621
0.0279787
0.0279361
0.0279433
0.195561
0.0279612
0.0279405
19.3167
0.027957
77.6756
100.4
0.149073
54.7404
0.151489
106.135
0.139088
0.0279645
0.0279643
0.0279611
0.168639
0.0279634
422.896
0.0279531
0.0279214
0.0279448
0.0279538
0.0279863
0.0279571
0.0279813
0.0274811
0.0279656
0.131839
0.0279699
0.027948
69.6072
0.0282818
0.0279421
447.612
0.179826
0.0279541
0.0279695
0.0279495
0.110975
79.0356
44.4781
135.037
57.5903
0.0279699
0.0279389
0.0279473
0.0279209
0.0279708
0.0279514
0.0412902
0.0279529
0.0279488
0.0279489
0.0280317
0.0279434
0.0279484
0.0279428
0.0279982
6.63563
9.26236
25.9691
0.297373
0.448427
0.0279689
0.0279574
57.2483
0.0267621
0.0279571
40.0935
0.0424351
0.0279351
0.0279555
0.0554904
23.635
0.569858
0.0279578
0.0279645
0.0437453
70.1994
0.0279644
0.0279492
0.0279645
0.296104
32.1462
0.0283642
0.0451006
0.0279458
0.0279616
0.0279699
0.0279544
0.0279433
0.0279679
0.0279561
0.0279639
0.0279679
0.027962
0.0279579
0.0279377
0.0279583
0.00810693
0.0279832
0.217024
3.38753
66.8187
6.38277
0.151131
0.143986
0.818905
0.741194
0.0279645
0.0279439
0.0284202
0.0339813
0.253315
0.1723
0.00129089
63.4739
233.34
2.30516
12.9405
0.0404983
0.0296852
0.0281679
122.198
1.06526
8.52853
0.0279494
0.0279713
0.0279535
0.0279313
0.159077
0.268274
0.101935
10.2798
0.0288769
0.0279462
0.0279601
0.0279688
2.83439
0.0385168
0.0278998
0.0279607
0.108276
0.0184485
0.0279557
0.0279595
0.0279635
0.0279463
0.0279309
0.0279768
0.145218
0.0278787
0.0279307
0.0280132
43.8747
0.0280991
0.0270525
0.0291551
0.0279303
5.33902
0.0279601
0.0280568
0.0279496
0.0453241
65.3221
16.8837
0.0279599
0.364889
0.0279524
0.0279559
11.7887
0.0896135
339.441
198.271
0.111303
0.0279645
4.29849
0.0279752
0.0279645
0.0279645
0.0280083
0.0279645
517.619
0.0279599
0.488995
2.23423
0.027959
0.0279559
0.0492689
0.0282228
0.131908
0.0279415
0.0781296
0.0279377
0.0279934
5.3668
0.0279656
0.02796
168.605
0.0279585
0.0279575
0.0279375
133.277
18.7272
0.0279623
2.75517
0.0279552
0.0279236
0.0279594
0.0279649
0.0279765
0.0279513
0.027958
0.0279645
0.0279647
0.0280142
0.128103
0.0279613
0.0151674
0.0278994
0.0628261
0.0435254
0.191932
121.305
0.0279645
0.0279645
0.0279555
13.3197
68.8558
0.0279645
0.0279836
188.917
36.6277
0.0286548
558.112
2.1114
0.0279438
0.168702
0.168163
0.0281065
0.0279761
0.0279552
0.0278469
0.130951
0.0272825
60.7256
0.0279383
0.0279575
456.327
1824.79
0.0280311
54.4838
169.347
0.0279558
0.027935
0.0450008
0.0279552
174.048
0.0435064
0.0435881
0.0459054
0.0279491
0.0279497
380.264
0.0779714
0.028113
0.0279612
0.0279488
0.0279637
0.0279456
0.0279348
0.157203
685.796
0.316271
0.0279458
0.0279487
0.0279493
0.0279464
0.0281253
0.0279575
0.0281262
0.0286895
2.2166
0.027955
0.179575
0.162694
0.0279228
0.0279311
0.0279319
275.428
0.0279417
0.0286788
0.374073
0.138504
0.0277777
0.0279457
0.0279348
0.0279687
0.0281271
153.057
0.0284011
0.027933
92.9469
21.3027
0.0279151
69.9179
0.0277466
0.0113908
0.0305414
0.0279364
0.0868321
0.0279545
0.0279727
0.0278989
0.0280719
0.0281029
0.0280099
0.0475782
0.0281958
0.0423849
0.0280679
0.0569599
0.0282554
0.0279558
0.0284926
0.0280023
0.0478931
0.17462
94.9503
0.0284384
0.00952753
0.0415259
0.0279731
0.0471047
0.117977
4.77768
0.0451082
0.137978
0.0279422
0.0511755
1.21559
0.0279496
353.059
135.871
0.783519
0.0443179
0.0431322
0.217253
0.0279271
0.0280414
0.00831043
63.999
0.0282737
0.0279586
0.194716
0.0280729
0.0279319
0.0461795
99.4983
296.647
0.0279606
0.196119
0.0279459
0.196979
0.0277333
0.0279705
0.094899
0.0279163
0.0470261
8.45903
0.0631197
0.0451946
97.0428
0.0281975
0.716609
0.0279179
0.139827
6.54573
0.0427152
0.0280845
0.0282233
252.445
50.509
7.66515
0.0280653
0.0280456
47.6971
0.0279878
0.0279453
20.2674
12.106
0.0445555
0.0279607
0.0279448
0.027935
0.138377
0.0279664
0.02797
0.027934
0.0711957
0.027984
0.0279642
0.0156103
0.0493785
0.0279629
0.0279512
61.4539
32.0637
0.0279546
0.0279599
0.103776
0.115306
0.027926
0.217302
0.046483
0.0480781
19.0357
0.0279438
0.0452448
0.040713
0.0279677
0.0280097
3.73466
0.0932462
1531.92
0.0279395
148.584
15.4602
0.181018
0.192974
0.0126676
2.22598
3.11769
52.9979
0.195951
19.6682
0.144982
0.0279498
0.0281843
0.147915
0.0279813
0.027931
0.158627
1.01288
0.0279386
0.0279975
0.0279724
0.0279775
0.0430846
0.159945
0.0279703
32.2104
0.0279446
0.027924
4.47702
0.126904
29.2044
0.0281413
0.112989
147.807
2.70105
52.1847
0.0279706
0.0279614
0.0279919
0.0279383
0.04109
0.0473775
0.0279579
0.0279613
22.7111
47.2395
0.0482491
231.001
0.158957
224.959
0.041802
85.5302
0.0281183
47.7048
0.0417134
0.159407
0.0280429
0.0279645
394.157
0.0279645
0.0279646
0.0279895
0.0279645
0.0279645
0.03902
0.156176
0.0259676
0.0279645
162.991
184.128
0.0388734
0.0279433
0.0279416
0.0279683
0.0279561
0.0871639
0.0279713
0.108667
0.109967
0.0279319
0.0279579
122.446
135.316
0.0877059
0.131545
0.0281098
0.0455622
0.141659
0.0279637
0.0279644
0.0279345
178.241
0.0279523
0.0279374
0.0279404
0.0279542
0.0405514
0.0280796
0.0281622
137.344
0.0336464
0.0514842
0.0278845
0.149874
0.137944
142.064
0.00774652
0.0279743
698.382
0.0279693
0.0279479
0.0280289
0.123719
0.0279462
0.0414013
0.13713
0.0279645
0.0279277
0.168023
0.02795
0.0279451
367.821
0.134178
0.0282647
0.132701
0.0279519
0.0279488
0.0279412
0.0279638
0.027939
960.292
0.0279455
0.0907782
0.0412137
0.0279645
0.0279645
649.293
0.0280551
0.159021
0.0416769
0.0279645
0.027936
0.0279648
0.0279582
0.0384302
0.153123
0.0279391
0.0409848
0.146969
0.0279365
0.0279645
0.0394995
0.0279721
0.0279647
0.0398594
0.0390704
0.0279457
0.0279648
12.4018
0.16375
0.0406156
0.166413
0.136742
0.0293027
0.131588
0.0279367
0.0279253
0.0279394
0.027948
0.0279645
0.0284544
0.19774
0.0279649
0.0405631
30.2938
0.0422698
0.0279676
0.0279315
9.17068
8.59901
0.0409303
25.2167
0.0279254
60.6558
0.0279692
0.0279725
0.0279612
0.0280419
0.173654
0.0279605
0.136498
0.0280251
0.0279645
0.0279645
0.0279295
0.0406064
0.0384146
0.159767
0.105839
0.0279645
0.0279645
47.4747
44.8169
0.027964
0.0279583
14.73
0.0989852
0.0196552
0.129948
0.0250338
0.0279651
0.0279643
0.0279645
0.0279398
0.0388256
0.124571
0.118592
0.0279646
0.0279417
0.0400657
0.0282197
0.163991
0.0279699
0.0279479
0.0279533
0.0410822
0.0392748
0.0424886
0.0279424
0.039248
0.138955
0.027953
0.0279491
0.0274173
0.139739
0.0281362
0.0279399
0.0279339
0.0279448
0.0279645
0.144566
0.0432104
0.0279648
0.0279645
0.118187
0.0279567
0.0279575
0.190647
0.189152
0.041644
0.0279305
0.0279644
0.0413907
0.0279645
0.0279611
0.027928
0.028023
0.027962
0.0279645
0.0279638
0.0279625
7.16994
0.0279645
0.0279582
0.0301361
23.7736
0.486873
168.277
145.303
0.0279269
0.189583
21.6313
4.21796
0.0397832
60.4038
0.027998
0.143441
7.08777
0.11751
17.7722
0.0434275
42.8326
0.377477
0.652957
18.1303
0.027955
0.0279643
0.167234
0.027956
29.1233
18.4598
842.128
1.23319
15.3323
19.6738
168.611
38.3805
195.131
0.0279934
0.0279307
0.0279739
1808.58
8.10912
0.0279671
0.0415638
0.0279613
0.0279649
0.0279823
0.146026
0.0281503
0.0407202
0.0279538
0.0279841
0.0282652
0.0279441
0.498844
0.0403341
0.0279307
1.32964
492.476
0.147834
0.0279605
0.155224
206.967
0.0914989
0.040458
0.0279571
0.0279589
0.0421382
0.101124
0.0436829
0.0279309
0.0428018
311.081
0.0281672
0.027956
0.119718
0.027955
605.061
0.0389041
0.0279645
0.138281
0.0309393
0.0280568
0.0447596
0.0412095
0.152625
302.882
43.1095
0.0280578
0.145547
0.0492575
0.0280072
0.027936
0.0476955
0.195629
0.0279487
0.027988
0.0279563
0.176142
0.0444536
0.138517
20.2254
3006.1
158.906
0.115814
0.161795
0.0279757
0.0279644
0.0279641
14.4851
0.0279462
0.0430608
0.417483
0.0333582
151.293
43.3367
631.095
0.0279484
144.473
131.567
0.027955
0.0280572
0.0463186
0.0284641
0.0279343
0.0279769
219.783
0.0279322
0.027997
0.0279558
0.028107
152.564
0.195427
0.0279428
0.0279655
0.150796
0.0279645
0.0279545
0.228612
0.155875
0.0431623
0.429427
0.027959
0.0416471
35.539
0.0280745
0.0279639
0.155337
0.0419109
0.180227
0.0280228
113.056
0.156185
0.145548
0.0279077
6.82847
0.0283663
0.0280798
559.089
0.0393036
0.0279534
0.02794
0.0286663
0.0279621
0.0212333
0.0279485
0.0782683
0.027949
0.0279377
0.0283138
0.0304427
0.0279575
0.0279414
0.0279473
0.0279339
108.045
0.0281923
1.39365
0.166454
0.0279491
0.134247
0.525548
0.285804
0.320671
0.240115
85.9217
2.72477
66.7258
0.0313136
0.151205
0.0279367
0.1113
0.0279331
0.0279429
47.3087
0.0279629
63.2394
527.354
0.0294865
0.0279737
0.0279375
0.0279493
3.56551
0.139796
0.0279303
4.52251
0.0287903
0.0279404
6.10961
0.0279525
220.121
129.494
0.0279399
0.0279399
0.0279307
0.0253345
0.0279514
28.2332
0.0867817
29.0427
0.027949
480.505
0.0279557
0.285698
695.126
74.9525
224.363
0.227828
0.0278019
0.0279312
69.146
84.4959
0.0279334
0.0283646
280.458
0.0279666
0.0279651
0.0279645
55.6091
0.148763
0.0279455
0.0279518
0.0279544
17.5078
0.423939
0.0279516
0.0279482
0.0279472
0.0473309
0.0279562
0.0280012
0.0280113
0.295721
264.358
0.515772
0.0279699
0.451069
38.345
0.0279587
0.0279814
0.0348066
0.0429428
0.0282024
0.0279122
22.75
4.46885
6.50702
0.0279638
138.33
0.0403528
0.0279479
172.517
7.2066
0.604267
1.86022
0.146564
0.0279639
0.027956
0.0258761
0.0279545
0.0297756
0.0279995
82.3788
0.0279555
0.26604
252.547
0.0279426
0.0288415
0.0280857
0.0279419
0.0785375
0.0279344
4.99751
0.0279485
0.0279472
0.00244158
3.61486
139.974
0.492344
0.0279463
0.46627
0.0279501
0.0279443
0.0045383
0.472647
0.0279491
17.3059
10.33
0.0279602
9.51482
4.74369
9.36265
1.32621
94.8527
0.314508
0.0790661
1.31441
0.0281089
2.22734
0.0279645
0.0279539
98.0431
0.535164
23.1047
70.1592
44.9909
19.0029
0.0279519
0.0280051
197.818
1.84933
23.7735
3.29311
5.53656
8.06312
30.4743
36.4593
197.119
0.121454
32.7912
263.574
0.0388043
300.209
313.103
0.0206497
0.0425063
0.13405
0.0284476
39.0648
0.0451523
33.9909
250.463
0.0279437
137.281
0.0279443
0.0336039
0.296026
0.0373447
4.0289
3.49518
0.0659404
0.127811
0.027956
0.0279104
0.14326
65.9599
0.0279409
0.261155
0.0275933
0.0279147
0.0193868
0.0392943
0.0279684
0.0279645
0.027961
0.0280187
0.110267
0.46988
0.0279775
0.0278952
0.0279787
254.967
0.0279645
0.0221571
0.0282108
0.0279645
15.6726
0.84779
0.0279078
0.0279423
643.876
24.1112
0.0315917
8.65828
0.0279715
0.0279547
0.137465
175.343
0.0286844
0.0279845