/*--------------------------------*- C++ -*----------------------------------*\
| =========                 |                                                 |
| \\      /  F ield         | OpenFOAM: The Open Source CFD Toolbox           |
|  \\    /   O peration     | Version:  2312                                  |
|   \\  /    A nd           | Website:  www.openfoam.com                      |
|    \\/     M anipulation  |                                                 |
\*---------------------------------------------------------------------------*/
FoamFile
{
    version     2.0;
    format      ascii;
    arch        "LSB;label=32;scalar=64";
    class       volScalarField;
    location    "0.5";
    object      p;
}
// * * * * * * * * * * * * * * * * * * * * * * * * * * * * * * * * * * * * * //

dimensions      [1 -1 -2 0 0 0 0];

internalField   nonuniform List<scalar> 
32842
(
101157
100828
101282
101283
101325
101217
88448.8
94986.4
101325
101199
95198.1
92852.1
101283
101325
101325
101205
101202
101161
101183
101325
101325
101186
101324
101325
101277
101288
101223
101325
97389.3
101393
99419.5
101325
94540.1
101277
92792.8
92143.7
101188
101213
101312
101126
101181
101313
101322
101325
101188
101336
100223
101343
101325
95171.8
95439.3
101324
101180
98750.8
101320
100693
101251
99373
101325
101325
92958.5
101283
101325
101325
101295
100976
101319
101160
101325
100878
101325
100612
101325
101325
101315
101107
97981.2
101313
101246
100046
101317
101308
101312
101325
101324
101319
101318
100937
97409.2
101156
101311
101246
99778.6
101325
101232
101271
101308
101325
101325
101325
101325
101221
100904
100286
101298
101428
97621.2
100749
101225
100739
101180
101218
99848.6
101210
100904
101325
101325
100420
100952
101289
101167
101206
94627
101279
100845
101237
101245
101224
99292
101289
101308
100606
101147
101201
101222
101097
100557
100875
101241
101195
101273
101214
101325
100407
101255
101232
97000.6
101239
101325
101163
100824
100938
101076
98621.3
100953
101321
101304
101273
101191
101213
101172
101309
101325
101313
101037
101359
101309
101261
101272
95484.7
100831
101144
100232
101325
101314
100308
101313
100883
101323
101276
101286
101255
101236
101200
101325
101221
101171
101213
101206
101288
101281
100665
101311
101315
101325
101230
101341
101168
101216
101163
101352
101234
100827
99999.5
99506.1
100953
101180
101269
101266
101100
101223
100963
100309
100405
101179
101325
101179
101138
101211
101169
100785
101249
101143
101191
101181
101159
101325
101325
101213
100247
101154
101223
101209
101225
100794
101229
101239
100918
101101
101325
95250.6
101210
101167
99401.3
101271
101268
101325
101166
101224
101231
101325
101225
101069
101208
101067
101224
101236
100469
101194
101333
101212
101324
101325
101229
101222
101206
101152
101337
101083
101325
101172
101225
101228
101283
101215
100909
101285
101149
101239
101166
101207
100251
100392
101324
101151
100802
100335
101325
101191
101317
101680
101325
101314
99674.6
95130.5
100771
101307
101187
101330
101325
97244.6
101213
101164
101072
101296
101325
101325
101325
101383
101207
101081
101325
101325
101198
101325
101111
101215
100012
101266
101303
101272
96431.5
101088
101325
101325
101090
101295
101324
101177
101324
101302
101325
101317
101325
101277
101264
101325
101325
101325
101233
101314
101191
100498
101314
101325
101325
101284
101325
101325
101325
101179
99828.5
101222
101325
101219
101235
101189
101269
101190
101264
101325
101325
101313
98129
101176
101325
101324
101321
100696
101325
101313
88591.1
101263
101169
101319
101130
101128
101325
100930
101324
101198
101224
101146
101327
101116
101325
101306
101181
101196
101236
101124
101258
101217
101249
101156
101325
101183
101265
101317
100937
100069
101325
101252
100827
99917.8
101126
101291
101119
101232
101221
101039
101251
101325
101125
101260
101195
101202
101243
101268
111491
101239
101201
101287
101229
103935
101284
101332
101316
100891
101325
101198
101325
101267
101103
101318
101240
101179
100225
99125
101222
101207
95018.8
101209
101325
101120
101206
101325
101325
101306
100692
101325
101277
101125
99472.5
101325
101315
101095
101325
101099
101198
101325
101325
101309
101321
101325
100908
101250
101325
101292
100626
101325
101325
101325
101325
101283
101325
101325
101318
101325
101325
101325
101325
101207
98813.7
101325
101231
101325
101325
100809
101325
101311
100776
101325
100858
101046
101325
101231
101325
100872
101354
101217
100210
100987
101325
101138
101325
101325
101153
100292
101218
101237
101325
101347
101189
101263
101325
101184
101215
99956.3
95774.9
99597.3
100400
100405
100550
99465.3
101309
101138
101194
101249
101319
99068.1
101324
100819
101179
101224
101325
95381.1
101294
103302
100544
101183
99051.4
100778
100689
101227
101325
101148
101245
99663.6
101325
101325
101184
92744.3
101245
101246
101201
101206
101215
93343.5
93902.4
101324
101325
100987
101302
93383.5
101325
101149
101167
101325
98506.7
101225
100939
99230.7
101325
101261
100335
101034
101195
99593
101325
101323
101325
100892
101221
101325
101325
101263
101322
101261
101325
101124
101325
101301
98674.2
101234
101164
99104.5
101181
101325
101189
98840.6
98803
97168.9
101323
94083.3
101284
97041.6
100765
97340.9
101325
101139
101325
101325
101325
97810.9
101325
101262
101325
101239
101325
101218
101087
101158
97467.2
101318
101205
101325
96446.1
97248.4
100758
101310
97923.7
101208
101325
101311
100838
101325
101272
101204
101295
99224.4
101323
101325
101325
101211
100631
101325
101325
99250.6
99149.7
101202
101257
101157
101310
101109
101319
101325
101282
101325
101197
99988.1
99633.9
101325
101093
100128
101189
100640
101247
101325
101297
101145
100793
101066
99992.8
101274
98859.2
101170
101290
99415
99513.7
100720
100889
101325
101161
101325
101244
99461.1
98890.9
99588.7
99854.3
100875
100639
99643.5
101153
98081.5
101282
101248
101215
98854.2
101325
101303
101135
101131
101335
101323
101253
101325
101325
101311
101325
101261
101325
101291
101167
101226
101215
101268
101237
101331
101256
101260
101275
101325
100790
101207
101349
101297
101304
101065
101325
101245
101232
101325
101302
100995
101204
101305
101268
101251
101248
97897
101325
101278
101290
101325
101325
100528
101262
101155
101344
101325
101239
101282
101234
101105
101304
101124
101236
101325
99199.9
99188.2
101339
101239
101325
101200
101325
101271
101207
101151
101199
98061.5
101309
100766
101325
101128
101223
100841
101319
101129
101185
101144
101217
101125
101369
101359
101323
101275
101273
101220
101315
101212
101254
99021.2
101016
101295
99412.9
101325
101162
101248
101155
101243
101310
101326
101349
101234
101135
101237
101272
101312
101236
101057
101140
100811
101210
101246
101277
100609
101233
101236
101303
101146
100747
101074
101180
101283
101325
101165
101260
101325
101189
100927
101215
101325
89114.8
101372
96321.6
101167
101296
100845
100830
101141
101183
101325
101325
101152
97667.6
101325
101290
101325
101325
101261
101139
100688
101271
101291
101325
100774
101349
101158
100989
101338
101349
101308
101325
101321
101311
101277
97925.2
101205
101325
101078
101291
101133
101183
100828
101325
101137
101209
101159
101199
100897
101325
101216
101258
101122
100828
101178
101325
100823
94868.7
101225
100723
97368.6
101325
101145
101045
101175
101325
101325
101190
101341
101146
101325
101325
101323
101247
100843
101240
101305
101325
101208
101340
94676.3
101144
101206
101325
101279
101313
101111
101253
101155
101236
101112
101325
101325
101325
100167
101325
101325
101300
101310
101294
101325
97595.7
99107.2
101325
100788
101325
101325
101287
101315
101132
101325
101410
101195
101325
101351
101163
101101
98893.2
101244
101325
101278
101325
101325
101325
101325
101325
99442.9
99501.9
96915.3
101309
101325
101325
101325
95522.8
101325
95399.3
95675.6
94903.6
94533.6
101325
99920.9
101325
100821
94646.2
101156
99682
100905
101228
101323
101254
94748.4
101057
101306
101225
98569.7
101325
101325
101151
101325
101170
101155
101244
100989
101177
101205
101215
100781
101036
101179
100158
101235
101252
100988
101247
98367.8
98934.6
101316
101194
101311
101331
100754
101246
100502
101194
100413
101212
101085
98893.9
101183
101142
101337
101113
100991
100512
101023
101288
101340
101320
101364
101258
100938
100597
101180
101176
94279.9
100730
101084
101251
100509
98637.2
101395
101325
101350
101269
100536
101242
101402
100771
101297
100888
100792
101188
101207
101246
101233
99443.1
101234
100935
100872
95698.4
101357
101214
100524
101134
99065.7
101219
101262
101240
100952
100550
100818
100364
100677
101291
95693.6
101348
100717
101290
101100
101407
101215
101198
101176
101128
93025.1
101209
101154
100898
101275
101325
99552.6
100533
100861
100823
101282
96543
99957.1
101129
101114
101262
101010
94545.6
99857
101137
100740
99954.1
101175
100785
100933
101223
97165.5
101308
101183
100828
101253
101216
94991.1
99518
100241
101126
101116
101325
101141
100752
100742
100571
101325
101265
100210
101213
101332
99161.5
101212
100553
100423
101248
101254
100435
100427
100292
100654
101291
100191
100561
101152
100340
100697
101215
101175
101308
100787
97636.6
101211
101114
94840.4
101434
100665
94609.1
101325
100698
93963.9
100842
101325
101315
100468
101144
101144
97296.8
100936
100634
100754
101170
101307
101271
101176
100679
100724
101164
100674
101325
94484.8
101123
95356.2
93816.8
100744
96973.9
95881.5
98855.6
100552
100411
97881.8
100651
101325
100422
100840
101268
101203
100538
101150
100905
101131
100884
101325
100825
101109
101093
100060
101212
100286
101133
101216
96024.9
101162
100624
97852.7
100275
101212
101325
101325
101325
101340
89758.9
101325
101151
101438
97109.2
101334
100540
101325
101390
101287
101212
99001.1
101325
101322
97434.6
100963
101132
100902
96634.5
101356
101316
100947
100487
100726
101181
99536.9
101325
97219.8
98258.8
100820
101325
97378.9
100888
101065
100892
96913.1
100858
100985
100805
99857.6
101172
100596
101098
99298.5
101325
101325
101306
100869
101295
101325
101337
99240.9
100698
101325
101242
99425.6
101195
101315
101325
95482.7
98017.9
101239
101270
101254
100739
100800
101245
100977
101141
100734
100214
101248
100870
101217
101277
100989
100716
101325
101163
101258
100881
100828
101228
98636.6
98982.4
101325
101161
100564
101325
101325
101059
95652.9
101216
100710
101144
101061
100755
100742
100725
101158
101193
101146
101214
101052
100995
101210
101246
100524
100679
101251
100355
100770
101288
101282
100876
101325
101174
100783
101347
100784
100665
100705
97230.1
100147
101140
101280
100047
101263
101371
100802
99965.6
101159
101276
100769
101418
99119.3
101256
99770.6
101275
101183
101325
101328
99757.1
101193
101325
101136
99964.8
100047
101288
100118
101325
101325
100822
101190
99878.7
100505
101325
99986.1
101295
99823.3
101337
100669
101203
100851
101300
100161
101163
101208
101092
100829
98741
100837
101224
101313
100534
101249
101325
98933.1
101325
100692
101147
101171
101155
101258
101181
101325
100379
101258
100558
100845
100905
101226
101055
101316
101031
101293
100021
101344
101339
101325
101304
101166
101388
101293
101179
99663.1
101214
101228
101240
101181
101274
101063
101172
101230
101149
99356.6
101019
101004
101248
101325
100684
100733
100868
101395
100799
101281
100856
101219
101219
101036
100625
100511
101051
99951.3
99847.3
99941.6
101261
99579.7
100709
101140
101072
99638.6
100045
101364
101198
100993
101214
100103
100354
101296
101289
101165
101123
100739
99806.2
101180
99213.5
100172
101325
100733
100855
100789
100782
101214
100955
101029
101226
99592
101346
100680
101206
101269
101128
101291
101282
101200
101232
100736
101088
100427
101216
100845
100888
101077
101331
98798.3
101323
101200
100905
100901
101265
100996
101224
100956
100735
95427.3
100859
101175
101325
101060
101259
100824
101246
101149
101258
100866
101199
101325
100152
101325
101306
101303
101325
97354.4
101279
100424
101325
101270
101319
99105.1
100923
100234
99130.4
101129
101280
101291
101196
101325
99494.6
99330.5
101325
101222
101267
101200
101322
101325
101081
101325
101219
101211
100852
101325
101252
101325
101137
101134
101155
101323
101325
101228
100905
100609
100913
101302
101207
101325
101205
100692
99621.6
101249
101211
101200
101254
100634
99905.2
99912.6
99862.9
101306
101154
95158.2
101047
101325
101209
101183
101180
100778
98582.7
100770
100743
101264
99042.4
101172
101169
100817
101034
101252
101131
101051
98689.3
101175
100957
98475
101209
101325
101325
101347
101178
101159
101145
101133
100437
100622
100613
100199
100678
100534
101256
101325
101307
100506
100678
101257
101325
100713
101196
100913
100618
101159
101220
100753
101150
101110
101086
101325
100959
101223
100944
101325
101325
101184
100965
101177
100819
101324
101175
100668
101332
101013
101277
101233
96479.5
100912
100863
101362
100728
101354
101185
100651
100754
100428
100664
101325
100508
101202
101245
101231
96606.5
101148
101258
101339
100911
101265
101271
101325
101161
101153
101190
101209
100500
101325
101240
101168
101196
101220
101256
101325
101179
101242
100700
101272
100596
101202
100835
101208
100842
98989.1
101201
100794
100807
100866
101325
101370
100784
101191
100327
101247
101234
101195
101182
101071
101312
101225
101162
101222
100609
101251
101083
101244
100604
101303
101117
101097
101325
101235
101325
101274
101256
101317
101331
101325
96930.6
96243.6
101213
101294
101325
101025
101245
101181
101208
100318
101325
93389.1
101214
100782
101250
101305
100739
101326
101167
100918
101325
101093
101251
101303
101177
101155
100876
100678
101087
101238
101240
99458.1
101249
100780
101202
101325
101093
101295
101211
98968.4
100899
100890
100918
101095
101325
100875
101361
101325
101378
100098
101159
101325
99968.6
101325
101223
101325
101325
101210
101181
101325
101326
100934
101325
100689
101130
95384.5
101141
101392
100331
101325
101165
101222
101290
101274
100880
101341
101189
100903
101261
100947
100517
101049
100982
101257
100810
101325
101325
99938.4
101096
101325
101221
101325
101204
101217
101325
100922
100819
101253
100950
100751
100371
97695.2
101272
101196
96189.8
101209
101188
99997.3
101123
99870.7
99760.4
99771.3
100995
101033
101220
101271
101314
101303
101329
101321
101087
101355
99234.5
100770
101273
99669.5
101194
101221
100812
95611.7
101323
101325
96052.9
101053
101325
101128
101015
101093
101325
99760.8
101288
100860
101301
100749
101210
99738
101325
100210
101205
101325
100794
101332
101329
100092
98743.4
101093
101001
101200
100365
101060
101245
101221
100269
101125
101325
101196
100642
100807
100134
98994.1
100762
100819
101216
100991
100922
100455
101098
101140
100301
101144
96612.4
101132
101128
101325
101280
100241
101245
101118
100277
93702.5
100893
100287
96072
101176
100974
100081
101235
101165
101063
100910
100750
100571
101437
100757
101234
98147.3
100156
101151
101153
99991.8
100502
101225
101142
101271
100873
100763
100861
99734
101221
101325
101087
101214
101325
96077.4
101263
101300
101292
100755
100420
101246
101091
101010
101201
100850
101250
101316
100609
100738
99255.4
101260
100338
101235
100458
100512
100549
101213
100743
100836
101389
101180
101137
101226
100602
100716
100441
100027
100324
99789.9
101234
98478.2
101192
101093
101339
101342
101302
101293
101394
101261
100894
101070
101236
101206
100574
101214
101238
101202
101217
101366
101050
101210
101246
101275
101160
100233
101235
100024
100071
101175
100172
101165
100010
101298
101325
101324
101272
101143
101319
99166.4
101222
100754
101193
101236
101369
101243
101347
100922
101297
101237
101285
101214
99922.7
100941
101162
99431.4
101137
101239
101320
101217
101324
100183
100229
100494
100149
101312
101154
101207
100902
101308
101227
101024
101234
101216
101215
100647
101172
101195
101149
101274
100701
100366
100288
100857
96153.1
101279
101247
100232
100912
101251
100223
101216
101117
101200
101117
95255.5
100862
101227
101325
101255
100277
101325
101202
101325
100851
100582
100768
101188
101193
101311
101313
101210
101141
101268
101239
101284
101309
101275
101251
101135
101251
100482
101385
100826
100575
100282
100772
101281
101174
100853
100836
101325
100965
101085
100578
100950
101180
100705
100188
99123.6
100862
100290
101176
100893
100887
99912.9
100787
100574
101209
101332
101084
101031
101085
100279
101047
100628
100746
101148
101261
101309
100628
100815
100812
101262
101214
100816
101248
101248
101029
101182
101136
101352
101125
101234
101133
101514
100891
100990
100913
100817
101084
100434
101245
101076
101205
100685
100325
100672
101232
100654
101210
101225
100607
101083
99992.4
100001
101324
101325
100562
101342
101325
101325
100931
101325
100608
101264
98683.7
100319
101219
101237
101165
100816
101278
101199
100822
101178
100967
100293
101291
101234
99501.8
101258
101251
101130
100671
100342
101277
100707
101239
101055
101259
101325
101334
101213
101230
101325
101280
101177
100744
101213
100955
100755
101171
101294
98111.5
99735.8
101325
101325
101212
100516
100689
101325
101143
100784
100359
100677
100532
100401
101172
101179
100973
100785
101322
101209
100780
101111
101055
100356
101181
101255
99518.4
96780.9
100759
100974
99635.8
101095
100874
101268
101226
99341.5
101117
101250
101132
101179
101184
100504
101089
101205
101239
101200
101284
101194
101139
101237
99295.9
97206
101220
101182
101243
101160
100777
101218
101317
100609
100792
101211
100809
101072
101082
100883
101093
100680
101189
100871
100611
101229
101104
101222
101108
101313
100900
100903
100891
101078
100945
100850
101112
96838.9
101230
100646
100878
101134
101053
101221
101303
100886
100943
100929
100922
101117
100915
100843
100859
100710
100791
101235
100866
100861
101192
101397
96886.6
100602
100836
101148
101334
101160
101098
100631
101094
100744
101146
101263
100721
101214
100422
100950
100845
101060
101201
101149
101090
101081
100920
100607
100950
101230
100527
101146
101087
101074
98915.1
95637.8
101269
101104
101179
101042
101020
101318
101096
100904
101130
100905
100727
101258
100909
100756
98737
100952
101247
100657
100828
101160
100977
99310.7
100018
100470
101177
101105
100032
101378
101159
100202
100282
101126
101258
101164
101117
101286
101278
101294
101148
100760
100823
101323
100707
101186
101266
101186
99908.9
100095
101372
101260
101138
100647
100973
101118
101230
101232
98238.8
101158
100692
101343
101306
101121
100769
100799
96353.2
101134
99852.6
98996.7
100729
101220
100919
100766
100766
100891
101210
100856
101105
101174
101156
101287
101374
101087
101074
100705
101068
100789
101306
101333
101115
101080
101288
100795
101163
101059
94986.2
101083
100559
100690
101213
100102
100701
100981
101226
101248
101274
101133
100987
101089
101231
101232
100884
100715
101286
99931.9
101037
99791.2
101040
100715
101225
100777
101172
101341
101102
101325
100108
101325
101325
101325
101325
101325
101325
101230
100838
101325
100062
99805.7
101325
101199
101176
101305
101247
95488.4
101321
101202
101186
101180
101290
99573.6
100220
101311
101202
101287
101031
101325
101321
101325
101171
99868.6
101251
101174
101192
101252
101299
101224
100694
99625.5
101325
101269
101275
101323
101220
100603
100739
101339
99439
101315
101248
101203
101323
101207
101320
101190
101325
101119
101324
101186
101210
99643.5
101325
100691
101204
101230
101240
101198
101322
101167
99235.3
101201
101155
101224
101325
101325
99328.5
101198
101299
101312
101325
101163
101325
101268
101325
101325
101177
101325
101245
101156
101325
101325
101079
101325
101271
101325
101223
101325
100348
101325
101325
101325
101314
100815
101325
101163
101104
101167
101216
101325
100666
100655
101325
101230
100167
101178
100746
101126
100384
100687
101298
100320
101105
100301
101312
101332
101307
101293
101304
101299
101328
101250
101325
101325
101119
101325
101323
101324
101325
101325
101325
100151
100190
101323
101259
100372
101325
100853
101325
100873
101325
101324
101325
101171
101264
101325
101320
101325
101184
101325
101246
101325
101320
101219
101214
101316
101325
101088
101202
101168
101325
101232
101187
100876
101168
101247
101190
101110
101156
101325
101325
101286
101325
101325
101167
101230
101287
101278
101281
101325
101137
101325
101325
101325
101307
100850
101184
101311
101325
101321
101315
100899
101325
101291
100636
100935
100767
99657
99292.5
100999
101281
100875
100800
101325
100951
101085
100978
100860
95241.9
100863
101250
100932
95431.1
100406
100909
101114
101324
100770
101223
100820
100781
100002
100768
100862
100845
99864.6
99211.1
100503
101407
101138
101337
103220
100879
101273
101207
101273
101325
101352
101325
100964
101325
101205
101359
100964
101144
100878
101012
100933
98390.3
99800.8
101273
101249
101339
100037
101209
101470
101196
101232
101447
100925
101182
101112
101220
99736.3
101366
101219
101238
101250
99458.6
101190
101325
101306
100869
101289
101178
101322
101217
99551.5
98917.6
101275
101200
101280
101326
100916
101258
101221
101215
101415
101237
101224
101152
101050
94159.8
20372.8
100361
101319
101099
101345
101253
101286
100578
101180
101117
100613
101209
100469
100757
100413
101237
100476
100493
101235
101246
101209
101190
101110
101350
99682.8
100940
100819
101218
100790
99842
100657
101144
101260
101158
101325
101239
100615
101220
101325
100909
101234
101313
100225
101278
101286
101288
101215
100883
101287
99412.3
101273
101255
100623
100746
100597
101237
98745.8
101325
101212
101182
100613
101175
100601
101238
101004
101182
101131
100585
100837
101219
100916
101051
101048
99608.2
100716
97500.1
101319
101241
100906
96326.5
100852
100863
100731
100189
100733
100135
100693
100930
101155
100602
101022
101187
99563
101254
99882.6
99596.8
100810
101311
101102
101195
100658
100805
101012
100661
100664
101174
100624
101197
98455.6
99585.7
101108
101173
101036
100607
101194
100479
100843
100417
101219
98663.3
101194
101054
99305.4
100049
98351.4
97068.4
100984
101131
99769
99604.5
101154
100770
98670.9
101257
101261
101325
100400
101328
101194
101228
101245
100831
100859
101203
101187
101171
101206
101248
100602
100802
100879
98499.1
100626
100912
100824
99282.2
101260
101348
100848
101245
101146
100828
100637
100851
100788
101258
99150.9
101272
101234
98905.7
100708
100662
100884
101251
101237
101279
100628
101210
100661
100742
100462
100974
100682
99353.5
101201
100814
101163
101201
101012
101040
95927
101238
101231
100827
100753
100061
96144.5
101217
100866
100913
101224
100837
97496.2
101202
100539
100708
101273
100752
100752
99621.3
100735
99694.1
100891
100939
100732
100688
100699
101325
101239
99749.4
100853
100510
100214
100461
100554
101257
100829
98827.9
100713
100228
100763
100778
100618
100521
100897
99725.4
100660
100228
100280
101331
100607
100598
100887
101279
101159
100882
100136
101123
100236
99857.4
101137
100700
101214
100760
100639
100702
100491
100768
100713
101293
101208
100930
101325
100602
101195
100346
101070
100940
100670
101325
101294
101325
101306
101381
101293
100690
101325
100835
101329
99920
101325
100655
101122
101325
100631
100536
100855
101054
99007.1
100410
101132
100733
101264
101220
101121
98775.1
100747
101364
100612
100681
100003
101141
101253
100567
100445
98078.2
100709
100990
100621
100672
101215
100708
100536
100817
100901
100792
100868
99330.4
101283
100791
100820
99663.3
100786
100573
100573
99279.9
100482
99377.7
100035
100600
100803
100807
101143
99560.7
95288.9
100729
100791
101007
100749
100785
100847
100647
99606.9
101255
100626
101369
101125
100799
100497
100792
98661.7
100686
100630
100313
100669
100888
101221
100647
101220
101108
101107
100629
100370
100762
100762
100184
99771.3
100547
99894.8
100331
100674
99977.8
100897
100376
100909
100917
101003
101019
99530.3
100903
100460
100882
100792
101336
100805
101155
100801
100195
100241
100171
100317
101325
99947.7
100555
100639
100625
100261
100354
100185
100432
100896
100993
100689
100700
100635
100811
101250
101160
100944
100715
101333
101090
101288
101121
100909
101253
101115
101248
101335
100791
101203
100825
100570
100899
100593
100923
101311
101200
98219.8
101258
101157
100825
100983
100941
99090.3
94858.1
100801
101191
100461
100925
100280
101164
99392.9
100817
100273
100949
99917.1
100837
100911
100504
100175
95609
100091
98259.8
99701.9
101218
100776
100709
100632
100623
100430
100774
101087
100691
100297
100145
100384
100911
100989
100735
100727
99911.5
101080
99879
100460
100888
101193
100893
100440
99816.2
99965.5
100901
100657
100505
100725
99686.3
100629
100749
100682
99886.8
100699
100888
100720
100697
100991
101030
101277
101137
99872.8
100348
99806.8
100029
101149
100152
100751
101019
99643
98582.5
100769
100920
100715
100268
101324
100985
100021
100678
100625
100729
101214
100596
100663
93363.1
100660
99535.2
101131
100675
101082
101214
101181
100678
101001
99088
100644
101098
101166
100699
100552
100719
100708
101191
100930
100930
100694
100902
100935
100872
100642
101261
101175
100414
101287
101357
99111.5
101395
100288
101208
101103
98876.3
101132
100312
98691.5
101043
100558
100855
100925
99364.1
100355
101067
101325
99794.5
100837
100914
101114
100301
100946
100770
101168
100843
100922
101133
100750
101018
100819
100780
100809
100854
100623
99570.5
100839
100718
100784
100582
100640
101132
100742
100653
100648
100512
101095
100838
101040
101060
100513
100900
100871
100522
100638
100757
101086
94312.7
100777
100640
100543
100723
100722
100488
100983
100540
101144
100460
101308
100908
100601
101202
100824
100581
100828
100898
101182
100866
99651.7
101223
100675
100724
101066
94422.8
100800
100772
100899
101056
96988.1
100018
100618
100621
100114
96536.7
100967
100658
100484
101081
100891
100848
100684
100734
100218
94938.2
96912.5
100878
100846
101249
100750
100583
100704
100738
100735
101014
101325
100729
100559
100990
100408
100627
100843
100637
101032
100957
100726
100959
100808
100871
100898
101138
100896
100756
100759
100847
100746
101173
100703
98781
100811
100885
100798
101283
95720.1
101282
101258
100705
100839
101180
101025
100597
101176
100620
100788
101127
100820
100932
100843
99678
100778
101171
100779
100286
100727
101194
100975
101007
101215
101173
100949
101021
100892
100844
101242
100959
96630.7
100899
101112
100695
100884
100799
100610
100962
100811
100590
100784
99630.3
100700
100849
100673
100681
100404
99058
100853
100941
101018
100906
100701
101288
101252
100839
101156
100707
101062
101066
100781
101005
100592
100847
99759.8
100770
100350
100972
100826
100311
99346
98519.6
100536
101227
100840
101145
101210
100891
100524
98444.8
100840
100799
101161
100903
100588
100843
100866
100868
100808
100748
100466
100815
100909
101155
100645
94529.8
101312
101104
101221
101321
100748
101316
101286
100656
100665
101232
100962
100988
101047
100750
100731
100977
100773
101118
100647
100830
100973
100578
99623.4
101151
100814
101237
100968
100746
100154
100850
100922
101304
100883
101022
100984
100242
100595
100933
100903
100364
100991
100664
100791
100870
100839
100994
100742
101024
101366
100595
101274
100764
101233
101273
101218
101268
100608
100872
100696
100956
101057
101195
101203
100893
95625.4
100845
98816.8
100988
101013
100784
100646
101298
100964
100824
100776
100680
89679.5
100852
101236
100847
100817
100855
101307
100649
101075
100480
101130
100799
101027
101204
100895
100971
101325
101315
101128
100740
100849
100687
100849
101147
100997
101177
100577
100710
100376
100193
100634
101321
100750
101178
100976
101239
100634
100986
100998
101211
100657
101236
100961
101154
100643
101148
99956.3
101207
100604
100945
101171
101293
100833
100746
100708
100785
100857
100467
100987
100915
101175
100756
101203
101177
100309
101211
100861
101176
100755
101357
100906
101184
101086
100946
101360
100716
101302
101341
100819
100598
100765
99997.2
101259
100753
101219
101242
100778
100846
100658
100923
101237
100830
100696
100749
100747
101237
100727
100870
100624
101344
101331
101324
100528
100773
100844
100749
101141
100690
100853
100733
101160
101083
101176
101323
100844
101297
101324
101260
101108
100683
100696
100351
100538
100980
100612
100606
101222
101185
100717
100350
100648
96773.6
101105
101161
101030
100777
99311
100959
100906
100880
101379
101221
100799
100250
100741
100406
101027
101142
100924
99827.2
100613
100784
101140
101077
100878
101170
100830
101015
101185
101241
100532
100235
100558
101110
101272
100861
100454
100889
101196
101108
97346.7
100734
100611
101232
101171
101300
101325
101325
101067
101215
101325
101140
101047
101178
101325
101217
101325
101167
101325
101212
101209
100613
101325
100761
100841
101324
100904
101325
101325
101325
101325
101325
101325
100856
101233
101205
100881
101154
101203
101240
100874
101230
101181
101107
101438
101237
100921
101313
100622
100655
101205
100671
101031
101245
101114
101187
101028
101153
101256
101010
101111
100656
101210
101008
101171
100892
101242
100765
101117
101142
101101
101267
100776
101353
101366
101195
100307
100945
100944
100952
101399
101172
101208
100962
100883
101239
101269
101148
101131
101122
101218
101227
100748
101184
101306
101262
100963
100948
100971
100890
101325
101325
100734
101218
101325
101321
101325
101004
100680
101170
101325
101325
101325
101325
101325
101325
100888
101286
101324
101152
101325
100894
101224
101199
101228
100758
101325
101183
101188
101162
101225
101141
101231
101304
101323
101216
100739
101325
101325
100744
100856
101325
101325
101325
101325
100887
101203
101325
100753
98997.9
100774
101220
101203
100671
101037
100767
101277
101096
101325
101325
101260
101207
101172
101081
101134
101325
101325
101044
101290
101325
101325
101235
101139
101316
101325
101325
101325
101325
101325
101325
100858
101312
101150
101340
101184
100917
100868
100881
101325
101325
100862
101325
101325
100869
100932
101325
100354
101325
100774
100839
101325
101263
101172
101257
101121
100890
101325
101325
101362
101199
101325
101325
100805
101325
100767
101182
101312
101325
101037
100845
101243
99223.4
101251
101286
100933
101228
100954
100933
100729
100739
101275
101054
101139
101324
100667
100945
101376
100970
101279
101191
100824
101110
101131
101262
101243
101176
101262
101353
101009
101324
100861
101176
101144
101111
100921
101020
101261
101267
100891
101137