/*--------------------------------*- C++ -*----------------------------------*\
| =========                 |                                                 |
| \\      /  F ield         | OpenFOAM: The Open Source CFD Toolbox           |
|  \\    /   O peration     | Version:  2312                                  |
|   \\  /    A nd           | Website:  www.openfoam.com                      |
|    \\/     M anipulation  |                                                 |
\*---------------------------------------------------------------------------*/
FoamFile
{
    version     2.0;
    format      ascii;
    arch        "LSB;label=32;scalar=64";
    class       volScalarField;
    location    "0.5";
    object      T;
}
// * * * * * * * * * * * * * * * * * * * * * * * * * * * * * * * * * * * * * //

dimensions      [0 0 0 1 0 0 0];

internalField   nonuniform List<scalar> 
32842
(
299.857
299.575
299.964
299.965
300
299.91
365.329
250
300
299.894
250
250
299.962
300
300
299.888
299.895
299.863
299.88
300
300
299.881
299.999
300
299.958
299.969
299.915
300
297.288
300.059
298.607
300
250
299.958
250
250
299.88
299.909
299.99
299.835
299.88
299.99
299.998
300
299.884
300.012
299.275
300.009
300
295.75
250
299.999
299.88
298.453
299.996
299.421
299.938
298.746
300
300
250
299.962
300
300
299.975
299.846
299.995
299.863
300
299.612
300
299.51
300
300
299.992
299.815
297.66
299.99
299.931
299.218
299.993
299.986
299.989
300
299.999
299.995
299.994
299.702
297.387
299.858
299.985
299.934
298.605
300
299.923
299.956
299.983
300
300
300
300
299.908
299.603
299.053
299.975
300.079
250
299.483
299.918
299.5
299.879
299.909
299.06
299.904
299.652
300
300
299.243
299.657
299.967
299.866
299.9
294.533
299.962
299.582
299.926
299.934
299.913
298.441
299.97
299.986
299.42
299.863
299.906
299.916
299.818
299.374
299.676
299.926
299.899
299.953
299.907
300
299.212
299.94
299.921
250
299.928
300
299.865
299.566
299.693
299.792
298.039
299.707
299.996
299.982
299.955
299.886
299.906
299.87
299.986
300
299.99
299.752
300.027
299.987
299.942
299.958
295.498
299.646
299.848
299.02
300
299.991
299.239
299.989
299.607
299.999
299.958
299.966
299.939
299.925
299.895
300
299.91
299.862
299.904
299.901
299.967
299.963
299.376
299.989
299.992
300
299.917
300.012
299.864
299.909
299.862
300.022
299.921
299.515
299.283
298.807
299.665
299.878
299.954
299.951
299.807
299.91
299.677
299.255
299.304
299.878
300
299.88
299.849
299.903
299.817
299.538
299.937
299.848
299.886
299.875
299.861
300
300
299.9
299.265
299.856
299.914
299.902
299.917
299.526
299.919
299.928
299.679
299.813
300
295.051
299.903
299.864
298.531
299.943
299.947
300
299.867
299.916
299.921
300
299.916
299.795
299.898
299.78
299.916
299.925
299.353
299.891
300.005
299.906
299.999
300
299.919
299.914
299.901
299.854
300.008
299.801
300
299.871
299.916
299.919
299.962
299.908
299.676
299.971
299.854
299.929
299.871
299.901
299.169
299.2
299.999
299.851
299.547
299.173
300
299.888
299.994
250
300
299.991
298.746
294.86
299.573
299.985
299.884
300.001
300
250
299.905
299.864
299.788
299.975
300
300
300
300.042
299.9
299.796
300
300
299.892
300
299.822
299.909
298.783
299.948
299.982
299.96
296.694
299.801
300
300
299.804
299.978
299.999
299.868
299.999
299.981
300
299.993
300
299.956
299.949
300
300
300
299.922
299.992
299.887
299.292
299.991
300
300
299.966
300
300
300
299.88
298.842
299.915
300
299.911
299.927
299.887
299.961
299.886
299.954
300
300
299.992
297.155
299.876
300
299.999
299.997
299.437
300
299.99
250
299.945
299.869
299.995
299.826
299.838
300
299.697
300
299.889
299.914
299.845
300.001
299.826
300
299.984
299.88
299.892
299.921
299.832
299.942
299.91
299.937
299.855
300
299.878
299.952
299.999
299.667
298.963
300
299.938
299.567
299.006
299.851
299.97
299.816
299.923
299.909
299.755
299.935
300
299.828
299.943
299.892
299.895
299.931
299.975
250
299.927
299.9
299.969
299.915
250
299.966
300.007
299.993
299.61
300
299.891
300
299.952
299.819
299.995
299.929
299.87
261.48
298.522
299.914
299.9
295.032
299.905
300
299.828
299.898
300
300
299.984
299.5
300
299.959
299.844
298.439
300
299.993
299.803
300
299.808
299.892
300
300
299.987
299.997
300
299.636
299.937
300
299.968
299.322
300
300
300
300
299.958
300
300
299.994
300
300
300
300
299.896
298.531
300
299.918
300
300
299.548
300
299.988
299.468
300
299.603
299.762
300
299.921
300
299.67
300.02
299.905
299.107
299.702
300
299.837
300
300
299.856
299.181
299.908
299.923
300
300.015
299.887
299.947
300
299.886
299.902
298.951
250
298.985
299.213
299.297
299.409
298.555
299.988
299.834
299.89
299.932
299.995
298.375
300
299.632
299.882
299.911
300
294.885
299.974
250
299.724
299.902
298.485
299.556
299.531
299.919
300
299.86
299.933
298.743
300
300
299.879
292.683
299.934
299.932
299.892
299.899
299.908
293.246
293.72
299.999
300
299.723
299.98
293.241
300
299.85
299.865
300
298.037
299.915
299.673
298.131
300
299.946
299.269
299.759
299.888
298.671
300
299.998
300
299.699
299.913
300
300
299.946
299.994
299.946
300
299.833
300
299.984
298.143
299.924
299.871
298.571
299.876
300
299.884
298.331
298.321
250
299.999
288.416
299.966
297.537
299.508
297.878
300
299.844
300
300
300
297.507
300
299.944
300
299.926
300
299.916
299.801
299.866
297.019
299.994
299.904
300
296.285
297.005
299.543
299.982
297.6
299.902
300
299.985
299.996
300
299.955
299.896
299.975
298.562
299.998
300
300
299.904
299.383
300
300
298.587
298.481
299.916
299.939
299.859
299.987
299.821
299.995
300
299.961
300
299.893
299.036
298.625
300
299.805
299.187
299.889
299.441
299.931
300
299.978
299.853
299.582
299.777
299.164
299.957
298.478
299.871
299.97
298.715
298.603
299.526
299.651
300
299.862
300
299.932
298.684
298.38
298.582
298.849
299.667
299.409
298.61
299.856
298.221
299.973
299.941
299.922
298.47
300
299.98
299.841
299.838
300.006
299.998
299.937
300
300
299.989
300
299.944
300
299.972
299.867
299.913
299.902
299.949
299.927
300.004
299.934
299.943
299.959
300
299.518
299.903
300.018
299.98
299.981
299.784
300
299.94
299.922
300
299.981
299.725
299.9
299.983
299.948
299.94
299.937
297.885
300
299.956
299.97
300
300
299.325
299.945
299.856
300.017
300
299.924
299.962
299.922
299.814
299.984
299.835
299.926
300
298.564
298.466
300.01
299.928
300
299.894
300
299.953
299.899
299.852
299.896
297.84
299.987
299.471
300
299.834
299.917
299.543
299.995
299.839
299.888
299.848
299.908
299.832
300.034
300.026
299.998
299.954
299.951
299.912
299.989
299.905
299.94
293.089
299.744
299.972
298.465
300
299.865
299.941
299.857
299.93
299.988
299.998
300.017
299.922
299.84
299.927
299.954
299.989
299.923
299.775
299.837
299.546
299.9
299.936
299.958
299.53
299.923
299.925
299.982
299.849
299.494
299.79
299.881
299.965
300
299.866
299.942
300
299.886
299.636
299.908
300
250
300.036
296.174
299.865
299.975
299.593
299.599
299.848
299.879
300
300
299.855
296.566
300
299.97
300
300
299.947
299.843
299.478
299.95
299.967
300
299.551
300.019
299.872
299.652
300.012
300.018
299.984
300
299.995
299.985
299.961
296.758
299.905
300
299.805
299.971
299.841
299.885
299.532
300
299.842
299.901
299.861
299.894
299.636
300
299.909
299.953
299.838
299.551
299.88
300
299.533
294.978
299.918
299.501
297.23
300
299.848
299.763
299.873
300
300
299.889
300.008
299.849
300
300
300
299.935
299.531
299.928
299.984
300
299.904
300.015
285.674
299.85
299.901
300
299.96
299.991
299.816
299.935
299.858
299.921
299.817
300
300
300
299.044
300
300
299.977
299.99
299.977
300
297.379
298.625
300
299.534
300
300
299.968
299.991
299.837
300
300.073
299.891
300
300.019
299.862
299.813
298.649
299.93
300
299.962
300
300
300
300
300
298.764
298.685
297.099
299.984
300
300
300
295.93
300
295.832
296.052
295.454
294.893
300
298.914
300
299.629
250
299.857
298.797
299.666
299.927
299.998
299.94
293.551
299.776
299.986
299.916
250
300
300
299.853
300
299.867
299.863
299.93
299.72
299.876
299.896
299.908
299.546
299.751
299.883
299.108
299.925
299.93
299.718
299.936
298.175
298.558
299.988
299.887
299.983
300.002
299.479
299.925
299.295
299.892
299.146
299.901
299.792
298.49
299.884
299.848
300.005
299.822
299.715
299.467
299.764
299.967
300.01
299.996
300.028
299.945
299.69
299.491
299.877
299.875
250
299.512
299.805
299.935
299.38
298.345
300.055
300
300.027
299.955
299.376
299.927
300.061
299.55
299.973
299.654
299.561
299.88
299.898
299.926
299.922
298.404
299.941
299.679
299.595
292.912
300.025
299.905
299.443
299.835
298.286
299.909
299.946
299.936
299.666
299.423
299.612
299.135
299.487
299.97
250
300.023
299.458
299.973
299.819
300.066
299.907
299.894
299.876
299.833
250
299.903
299.857
299.631
299.958
300
298.653
299.344
299.578
299.58
299.965
296.98
298.756
299.835
299.805
299.945
299.731
294.857
298.876
299.836
299.457
298.86
299.869
299.578
299.645
299.915
296.818
299.984
299.893
299.567
299.943
299.908
295.232
298.563
299.185
299.843
299.82
300
299.838
299.476
299.569
299.365
300
299.95
299.168
299.905
300.008
298.626
299.905
299.414
299.321
299.936
299.941
299.327
299.144
299.115
299.523
299.968
299.009
299.443
299.855
299.195
299.493
299.908
299.879
299.983
299.535
296.902
299.904
299.817
294.395
300.092
299.546
294.913
300
299.404
292.569
299.726
300
299.986
299.254
299.846
299.842
297.18
299.685
299.396
299.606
299.876
299.985
299.954
299.878
299.539
299.431
299.865
299.364
300
294.432
299.836
295.601
250
299.445
297.107
295.836
298.57
299.406
299.317
250
299.294
300
299.322
299.622
299.952
299.898
299.419
299.862
299.663
299.833
299.686
300
299.652
299.825
299.803
250
299.908
299.217
299.833
299.911
292.419
299.867
299.432
297.751
299.202
299.904
300
300
300
300.01
250
300
299.855
300.097
297.206
300.007
299.356
300
300.054
299.965
299.906
298.465
300
299.997
297.037
299.701
299.835
299.647
293.957
300.027
299.992
299.742
299.367
299.582
299.878
298.61
300
296.936
298.104
299.536
300
297.27
299.64
299.773
299.628
296.938
299.591
299.703
299.537
298.723
299.872
299.469
299.809
298.381
300
300
299.982
299.674
299.97
300
300.004
298.469
299.546
300
299.925
298.589
299.89
299.994
300
295.108
297.897
299.925
299.951
299.935
299.53
299.572
299.928
299.724
299.842
299.536
299.421
299.934
299.597
299.906
299.956
299.704
299.533
300
299.869
299.947
299.649
299.596
299.918
297.869
298.5
300
299.855
299.413
300
300
299.775
295.218
299.906
299.453
299.846
299.779
299.49
299.468
299.475
299.86
299.893
299.848
299.905
299.771
299.725
299.909
299.936
299.385
299.403
299.937
299.367
299.546
299.967
299.963
299.637
300
299.872
299.494
300.014
299.546
299.346
299.416
297.224
299.1
299.841
299.96
299.035
299.946
300.041
299.514
298.963
299.861
299.956
299.537
300.072
298.544
299.94
298.848
299.961
299.876
300
299.998
298.881
299.891
300
299.833
298.962
299.213
299.967
299.066
300
300
299.547
299.891
298.921
299.363
300
298.858
299.977
298.899
300.011
299.499
299.895
299.649
299.979
299.084
299.855
299.898
299.797
299.639
298.322
299.616
299.913
299.989
299.401
299.934
300
298.456
300
299.539
299.852
299.871
299.863
299.947
299.883
300
299.155
299.943
299.334
299.588
299.641
299.913
299.771
299.997
299.751
299.976
298.835
300.017
300.015
300
299.981
299.86
300.052
299.974
299.877
298.824
299.905
299.916
299.926
299.886
299.959
299.782
299.873
299.92
299.857
298.623
299.732
299.73
299.939
300
299.453
299.478
299.689
300.066
299.546
299.958
299.671
299.909
299.909
299.724
299.46
299.358
299.774
298.85
298.822
298.884
299.945
298.617
299.437
299.844
299.804
298.674
298.964
300.036
299.894
299.719
299.894
299.022
299.254
299.974
299.97
299.872
299.831
299.497
299.006
299.876
298.551
299.055
300
299.465
299.599
299.572
299.531
299.903
299.652
299.75
299.914
298.762
300.019
299.41
299.902
299.949
299.833
299.97
299.963
299.895
299.922
299.515
299.799
299.33
299.905
299.656
299.703
299.793
300.004
298.619
299.999
299.894
299.679
299.715
299.946
299.719
299.915
299.689
299.572
296.061
299.623
299.874
300
299.78
299.94
299.643
299.931
299.855
299.94
299.597
299.893
300
299.14
300
299.982
299.982
300
297.142
299.959
299.33
300
299.957
299.997
298.308
299.697
299.552
298.399
299.837
299.966
299.973
299.891
300
298.582
298.617
300
299.911
299.954
299.893
299.997
300
299.79
300
299.909
299.91
299.661
300
299.937
300
299.834
299.842
299.856
299.998
300
299.92
299.699
299.449
299.705
299.978
299.905
300
299.9
299.393
298.74
299.937
299.909
299.893
299.946
299.423
298.972
298.835
298.868
299.983
299.858
250
299.753
300
299.899
299.877
299.877
299.553
298.264
299.534
299.516
299.947
298.585
299.872
299.87
299.53
299.756
299.935
299.835
299.766
298.457
299.874
299.714
298.293
299.902
300
300
300.014
299.877
299.858
299.85
299.839
299.228
299.327
299.409
298.964
299.404
299.305
299.942
300
299.985
299.282
299.445
299.943
300
299.592
299.888
299.652
299.339
299.861
299.911
299.591
299.857
299.822
299.799
300
299.704
299.915
299.701
300
300
299.876
299.687
299.883
299.585
299.999
299.875
299.513
300.002
299.739
299.959
299.919
296.372
299.674
299.599
300.032
299.494
300.023
299.882
299.427
299.506
299.264
299.457
300
299.214
299.889
299.933
299.913
296.868
299.848
299.948
300.008
299.677
299.948
299.951
300
299.859
299.845
299.891
299.905
299.279
300
299.926
299.877
299.892
299.912
299.938
300
299.875
299.926
299.466
299.955
299.43
299.89
299.623
299.899
299.593
298.813
299.895
299.562
299.567
299.635
300
300.036
299.573
299.888
299.127
299.932
299.92
299.891
299.89
299.788
299.989
299.913
299.864
299.922
299.382
299.938
299.796
299.932
299.377
299.978
299.818
299.805
300
299.923
300
299.955
299.94
299.991
300.009
300
297.12
296.442
299.916
299.974
300
299.728
299.928
299.878
299.899
299.117
300
293.471
299.911
299.543
299.936
299.985
299.559
299.999
299.878
299.654
300
299.803
299.937
299.981
299.882
299.87
299.641
299.516
299.8
299.927
299.929
298.518
299.93
299.53
299.895
300
299.804
299.975
299.903
298.165
299.637
299.629
299.661
299.808
300
299.621
300.033
300
300.041
298.939
299.86
300
298.807
300
299.914
300
300
299.906
299.879
300
300.001
299.625
300
299.437
299.828
250
299.846
300.062
299.532
300
299.862
299.919
299.97
299.954
299.687
300.01
299.883
299.628
299.951
299.773
299.386
299.756
299.697
299.944
299.59
300
300
298.747
299.806
300
299.921
300
299.895
299.912
300
299.606
299.593
299.937
299.603
299.511
299.294
250
299.956
299.893
296.026
299.903
299.884
299.255
299.836
299.325
299.1
298.969
299.728
299.758
299.917
299.954
299.991
299.99
300.003
299.991
299.79
300.024
298.565
299.512
299.956
298.81
299.887
299.911
299.587
293.005
299.998
300
295.778
299.771
300
299.835
299.714
299.794
300
298.692
299.968
299.586
299.985
299.459
299.904
298.585
300
299.005
299.897
300
299.579
300.008
300.005
299.034
298.124
299.804
299.718
299.892
299.109
299.756
299.93
299.906
299.011
299.831
300
299.89
299.465
299.552
298.876
298.279
299.49
299.572
299.911
299.674
299.667
299.329
299.81
299.84
299.086
299.852
296.589
299.842
299.834
300
299.963
299.211
299.933
299.827
299.053
289.659
299.627
299.079
295.68
299.874
299.703
299.034
299.923
299.866
299.777
299.615
299.509
299.481
300.097
299.541
299.924
298.056
298.967
299.852
299.86
298.841
299.352
299.915
299.847
299.952
299.652
299.534
299.629
250
299.911
300
299.799
299.909
300
296.255
299.943
299.976
299.971
299.488
299.347
299.927
299.775
299.727
299.89
299.635
299.935
299.992
299.486
299.46
298.614
299.946
299.133
299.923
299.276
299.34
299.428
299.904
299.466
299.545
300.055
299.878
299.837
299.917
299.392
299.459
299.227
299.05
299.113
298.802
299.923
297.915
299.887
299.806
300.009
300.011
299.98
299.972
300.057
299.944
299.672
299.775
299.923
299.901
299.383
299.907
299.924
299.897
299.899
300.036
299.749
299.904
299.93
299.957
299.863
299.04
299.923
298.84
298.865
299.874
298.976
299.865
298.857
299.977
300
299.999
299.957
299.847
299.995
298.561
299.909
299.51
299.888
299.923
300.033
299.928
300.018
299.667
299.975
299.919
299.962
299.904
298.74
299.684
299.86
298.633
299.836
299.924
299.995
299.908
299.999
298.927
298.996
299.244
298.959
299.991
299.855
299.901
299.638
299.99
299.917
299.744
299.921
299.909
299.907
299.445
299.874
299.889
299.857
299.957
299.511
299.161
299.074
299.561
296.661
299.955
299.938
298.995
299.664
299.936
299.034
299.906
299.827
299.907
299.819
294.064
299.632
299.915
300
299.943
299.18
300
299.9
300
299.567
299.4
299.5
299.886
299.887
299.988
299.99
299.902
299.843
299.951
299.931
299.964
299.987
299.956
299.935
299.837
299.933
299.342
300.049
299.569
299.506
299.213
299.6
299.968
299.877
299.64
299.589
300
299.705
299.788
299.421
299.723
299.883
299.469
299.127
298.395
299.706
299.139
299.876
299.621
299.646
298.894
299.561
299.466
299.903
300.006
299.785
299.783
299.797
299.102
299.78
299.503
299.533
299.848
299.943
299.985
299.422
299.53
299.576
299.942
299.909
299.555
299.932
299.936
299.755
299.881
299.842
300.023
299.833
299.916
299.839
300.152
299.629
299.686
299.65
299.543
299.802
299.191
299.937
299.792
299.896
299.469
299.093
299.545
299.926
299.461
299.901
299.916
299.457
299.798
299.139
299.289
300.005
300
299.389
300.013
300
300
299.68
300
299.354
299.954
298.729
299.145
299.91
299.927
299.872
299.534
299.959
299.895
299.569
299.877
299.715
299.11
299.971
299.921
298.471
299.948
299.94
299.835
299.485
299.087
299.96
299.592
299.928
299.775
299.945
300
300.011
299.902
299.917
300
299.971
299.882
299.492
299.906
299.69
299.549
299.888
299.974
297.815
298.591
300
300
299.902
299.4
299.47
300
299.841
299.637
299.149
299.481
299.487
299.186
299.871
299.882
299.706
299.579
299.999
299.916
299.524
299.819
299.79
299.178
299.88
299.941
298.656
250
299.472
299.677
298.511
299.797
299.618
299.95
299.913
298.542
299.829
299.939
299.84
299.876
299.877
299.521
299.805
299.897
299.924
299.894
299.963
299.889
299.843
299.925
298.452
297.433
299.912
299.876
299.931
299.877
299.483
299.918
299.993
299.409
299.612
299.903
299.577
299.79
299.797
299.63
299.798
299.597
299.886
299.634
299.462
299.921
299.828
299.914
299.82
299.988
299.646
299.669
299.633
299.792
299.679
299.611
299.824
294.711
299.923
299.483
299.555
299.838
299.772
299.913
299.98
299.653
299.628
299.58
299.6
299.832
299.638
299.56
299.553
299.52
299.484
299.924
299.602
299.593
299.889
300.057
296.766
299.41
299.619
299.86
300.006
299.872
299.82
299.504
299.812
299.508
299.851
299.946
299.587
299.903
299.39
299.724
299.677
299.783
299.898
299.884
299.806
299.817
299.717
299.34
299.733
299.925
299.333
299.849
299.801
299.768
298.468
278.662
299.957
299.828
299.888
299.762
299.745
299.997
299.799
299.655
299.833
299.694
299.51
299.945
299.677
299.533
298.411
299.697
299.93
299.485
299.598
299.867
299.712
298.585
298.869
299.28
299.876
299.818
298.855
300.042
299.861
299.006
299.109
299.832
299.956
299.863
299.824
299.968
299.974
299.974
299.852
299.552
299.576
299.999
299.45
299.882
299.948
299.893
298.724
298.947
300.039
299.942
299.853
299.453
299.698
299.827
299.925
299.922
297.956
299.855
299.435
300.016
299.983
299.835
299.492
299.626
250
299.838
298.825
298.43
299.474
299.907
299.659
299.482
299.53
299.639
299.904
299.597
299.813
299.868
299.856
299.968
300.038
299.803
299.797
299.452
299.757
299.491
299.986
300.01
299.831
299.797
299.967
299.602
299.868
299.769
293.943
299.802
299.417
299.477
299.914
298.887
299.498
299.622
299.917
299.939
299.953
299.845
299.714
299.799
299.926
299.923
299.613
299.473
299.973
298.811
299.765
298.708
299.762
299.471
299.917
299.527
299.867
300.016
299.816
300
299.123
300
300
300
300
300
300
299.923
299.602
300
298.936
298.713
300
299.894
299.876
299.984
299.935
295
300
299.899
299.879
299.879
299.97
298.502
299.014
299.988
299.898
299.967
299.756
300
299.997
300
299.87
298.687
299.938
299.874
299.889
299.937
299.979
299.913
299.419
298.508
300
299.953
299.962
299.999
299.912
299.393
299.468
300.009
298.56
299.989
299.936
299.896
299.998
299.899
299.996
299.885
300
299.827
300
299.884
299.903
298.653
300
299.408
299.898
299.92
299.929
299.894
299.997
299.867
298.558
299.896
299.85
299.916
300
300
298.47
299.892
299.982
299.992
300
299.865
300
299.95
300
300
299.876
300
299.928
299.858
300
300
299.794
300
299.955
300
299.915
300
299.156
300
300
300
299.991
299.542
300
299.863
299.815
299.866
299.905
300
299.438
299.468
300
299.92
298.969
299.875
299.488
299.834
299.18
299.492
299.978
299.107
299.816
299.061
299.987
300.002
299.985
299.973
299.985
299.978
300
299.935
300
300
299.826
300
299.999
299.999
300
300
300
298.928
298.967
299.998
299.942
299.177
300
299.596
300
299.614
300
299.999
300
299.871
299.949
300
299.996
300
299.88
300
299.941
300
299.992
299.911
299.907
299.993
300
299.801
299.897
299.866
300
299.926
299.881
299.602
299.873
299.935
299.887
299.819
299.854
300
300
299.967
300
300
299.868
299.925
299.969
299.961
299.964
300
299.843
300
300
300
299.985
299.594
299.881
299.989
300
299.997
299.991
299.693
300
299.972
299.422
299.705
299.59
298.527
298.53
299.722
299.964
299.633
299.593
300
299.673
299.8
299.714
299.645
294.995
299.628
299.934
299.663
295.404
299.217
299.654
299.814
299.999
299.526
299.915
299.563
299.555
299.296
299.583
299.665
299.617
298.739
298.976
299.346
300.065
299.844
300.01
250
299.672
299.95
299.899
299.956
300
300.026
300
299.686
300
299.899
300.031
299.661
299.852
299.725
299.74
299.649
298.135
298.938
299.954
299.937
300.012
299.051
299.899
300.12
299.885
299.921
300.102
299.629
299.88
299.819
299.907
298.909
300.037
299.925
299.923
299.937
298.797
299.887
300
299.984
299.613
299.967
299.873
299.998
299.91
298.654
298.431
299.955
299.892
299.959
299.998
299.676
299.947
299.912
299.908
300.074
299.938
299.918
299.856
299.763
293.398
250
299.184
299.993
299.813
300.018
299.94
299.963
299.433
299.875
299.824
299.424
299.905
299.252
299.515
299.596
299.926
299.226
299.288
299.926
299.935
299.898
299.895
299.82
300.017
298.792
299.669
299.455
299.915
299.49
298.832
299.431
299.848
299.941
299.858
300
299.925
299.421
299.906
300
299.644
299.924
299.989
299.172
299.96
299.965
299.968
299.902
299.594
299.966
298.605
299.955
299.94
299.41
299.618
299.377
299.927
298.377
300
299.91
299.879
299.395
299.868
299.354
299.927
299.704
299.872
299.834
299.358
299.565
299.924
299.673
299.787
299.751
298.629
299.446
297.502
299.995
299.93
299.603
296.046
299.58
299.574
299.469
299.125
299.543
299.03
299.435
299.688
299.858
299.356
299.747
299.884
298.815
299.935
298.847
298.806
299.52
299.987
299.807
299.911
299.479
299.535
299.735
299.488
299.411
299.873
299.513
299.894
297.919
298.704
299.811
299.872
299.749
299.329
299.891
299.366
299.611
299.297
299.91
298.033
299.894
299.786
298.635
299.077
298.311
297.174
299.727
299.838
298.795
298.619
299.857
299.5
298.189
299.95
299.958
300
299.241
300
299.889
299.917
299.933
299.627
299.576
299.902
299.883
299.875
299.897
299.935
299.276
299.552
299.563
297.994
299.463
299.662
299.569
298.74
299.944
300.016
299.603
299.933
299.855
299.589
299.462
299.679
299.63
299.944
298.591
299.956
299.924
298.349
299.587
299.5
299.701
299.938
299.926
299.962
299.325
299.904
299.454
299.442
299.362
299.718
299.504
298.702
299.897
299.547
299.884
299.897
299.742
299.785
293.151
299.927
299.921
299.573
299.585
298.938
295.872
299.91
299.574
299.649
299.91
299.575
297.259
299.897
299.441
299.517
299.954
299.585
299.555
299.046
299.542
298.643
299.615
299.714
299.598
299.443
299.499
300
299.926
298.812
299.556
299.344
299.171
299.307
299.435
299.943
299.561
298.258
299.516
299.162
299.554
299.565
299.493
299.395
299.625
298.819
299.476
298.983
299.508
300.006
299.627
299.806
299.607
299.96
299.859
299.648
298.949
299.83
299.049
298.921
299.833
299.399
299.908
299.547
299.364
299.541
299.189
299.613
299.523
299.975
299.905
299.657
299.998
299.361
299.891
299.214
299.792
299.656
299.471
300
299.976
300
299.984
300.044
299.966
299.502
300
299.59
299.996
298.739
300
299.414
299.823
300
299.466
299.375
299.619
299.762
298.437
299.266
299.825
299.559
299.96
299.909
299.811
298.214
299.487
300.033
299.363
299.436
298.841
299.845
299.938
299.317
299.246
298.181
299.529
299.723
299.378
299.423
299.909
299.428
299.299
299.594
299.653
299.515
299.613
298.602
299.969
299.634
299.522
298.985
299.578
299.397
299.717
298.798
299.3
298.652
298.931
299.31
299.601
299.544
299.845
298.477
294.709
299.533
299.562
299.72
299.466
299.547
299.556
299.428
298.706
299.941
299.439
300.039
299.828
299.546
299.29
299.584
298.357
299.674
299.403
299.16
299.484
299.616
299.924
299.405
299.921
299.819
299.815
299.359
299.199
299.573
299.555
298.971
298.756
299.446
298.702
299.09
299.425
298.81
299.628
299.115
299.67
299.651
299.724
299.734
298.5
299.658
299.178
299.654
299.542
300.008
299.547
299.857
299.55
298.942
299.201
299.003
299.206
300
298.974
299.615
299.431
299.466
299.04
299.053
299.004
299.299
299.6
299.698
299.474
299.463
299.437
299.502
299.953
299.855
299.749
299.54
300.011
299.768
299.966
299.821
299.66
299.936
299.821
299.936
300.003
299.513
299.9
299.575
299.333
299.657
299.45
299.633
299.984
299.908
297.829
299.94
299.856
299.55
299.724
299.709
298.545
295.701
299.548
299.882
299.25
299.707
299.126
299.879
298.621
299.591
299.111
299.685
299.223
299.595
299.641
299.265
299.126
295.582
298.968
298.065
298.597
299.911
299.592
299.546
299.468
299.337
299.3
299.598
299.801
299.384
299.125
299.042
299.251
299.678
299.706
299.541
299.527
298.846
299.765
298.864
299.211
299.598
299.893
299.644
299.179
298.77
298.877
299.662
299.431
299.294
299.491
298.855
299.414
299.522
299.474
298.813
299.475
299.624
299.498
299.521
299.723
299.752
299.959
299.836
298.756
299.094
298.733
298.82
299.853
298.946
299.497
299.75
298.902
298.269
299.54
299.654
299.497
299.373
300
299.728
298.907
299.463
299.395
299.519
299.91
299.436
299.427
250
299.455
298.848
299.825
299.492
299.791
299.909
299.877
299.463
299.745
298.424
299.511
299.811
299.861
299.446
299.462
299.468
299.544
299.889
299.648
299.643
299.379
299.616
299.638
299.58
299.433
299.959
299.865
299.441
299.968
300.027
298.894
300.057
299.107
299.903
299.817
298.677
299.837
299.172
298.446
299.766
299.459
299.635
299.668
298.598
299.448
299.789
300
298.797
299.623
299.659
299.812
299.123
299.645
299.517
299.876
299.614
299.57
299.844
299.562
299.736
299.555
299.549
299.577
299.644
299.403
299.257
299.602
299.52
299.52
299.406
299.44
299.814
299.535
299.487
299.456
299.483
299.798
299.603
299.744
299.754
299.409
299.632
299.625
299.351
299.4
299.523
299.802
294.634
299.515
299.421
299.641
299.47
299.509
299.482
299.686
299.379
299.839
299.516
299.985
299.683
299.371
299.905
299.577
299.404
299.626
299.668
299.887
299.622
298.794
299.914
299.424
299.548
299.775
294.735
299.601
299.523
299.694
299.771
297.187
298.996
299.387
299.594
298.981
296.851
299.715
299.596
299.566
299.782
299.676
299.602
299.473
299.509
299.075
295.262
296.957
299.607
299.599
299.932
299.529
299.473
299.497
299.538
299.511
299.733
300
299.542
299.712
299.721
299.579
299.398
299.581
299.414
299.743
299.678
299.547
299.715
299.585
299.647
299.684
299.838
299.651
299.496
299.514
299.568
299.487
299.866
299.552
298.288
299.551
299.666
299.594
299.965
296.055
299.961
299.943
299.604
299.594
299.867
299.733
299.424
299.874
299.402
299.58
299.825
299.581
299.682
299.59
298.631
299.571
299.874
299.611
299.361
299.427
299.883
299.71
299.731
299.911
299.869
299.667
299.779
299.623
299.601
299.931
299.709
296.67
299.648
299.818
299.543
299.626
299.563
299.401
299.709
299.545
299.369
299.509
298.553
299.534
299.595
299.474
299.471
299.309
298.737
299.618
299.673
299.759
299.632
299.485
299.966
299.933
299.598
299.858
299.526
299.783
299.79
299.574
299.739
299.356
299.58
298.681
299.571
299.248
299.7
299.566
299.219
298.539
297.999
299.287
299.924
299.632
299.855
299.903
299.631
299.398
298.115
299.576
299.568
299.857
299.677
299.375
299.552
299.577
299.654
299.639
299.632
299.431
299.642
299.717
299.858
299.422
294.813
299.989
299.813
299.912
299.995
299.515
299.994
299.964
299.425
299.418
299.927
299.678
299.716
299.769
299.506
299.541
299.724
299.523
299.824
299.437
299.554
299.683
299.378
298.691
299.857
299.578
299.929
299.718
299.471
298.964
299.607
299.682
299.982
299.631
299.749
299.706
299.033
299.365
299.657
299.723
299.092
299.723
299.491
299.615
299.681
299.612
299.773
299.514
299.749
300.037
299.6
299.955
299.582
299.922
299.949
299.909
299.951
299.351
299.585
299.439
299.674
299.822
299.908
299.877
299.695
295.731
299.605
298.285
299.688
299.775
299.504
299.417
299.979
299.664
299.521
299.528
299.446
250
299.605
299.921
299.601
299.556
299.661
299.982
299.409
299.794
299.28
299.836
299.589
299.775
299.89
299.523
299.713
300
299.987
299.828
299.527
299.63
299.449
299.656
299.839
299.738
299.877
299.574
299.434
299.158
299.323
299.385
299.994
299.497
299.888
299.734
299.928
299.412
299.751
299.72
299.905
299.466
299.926
299.73
299.857
299.495
299.844
299.199
299.899
299.393
299.725
299.866
299.972
299.575
299.482
299.503
299.529
299.565
299.385
299.728
299.621
299.87
299.494
299.898
299.875
299.302
299.905
299.66
299.874
299.54
300.027
299.66
299.886
299.788
299.705
300.028
299.45
299.975
300.014
299.505
299.483
299.481
298.997
299.946
299.48
299.906
299.932
299.499
299.62
299.429
299.657
299.927
299.565
299.442
299.478
299.475
299.927
299.461
299.616
299.415
300.014
299.997
299.999
299.29
299.468
299.586
299.467
299.841
299.478
299.602
299.502
299.868
299.801
299.89
299.998
299.542
299.968
299.999
299.949
299.82
299.498
299.429
299.421
299.541
299.689
299.42
299.355
299.919
299.881
299.457
299.393
299.479
296.667
299.818
299.863
299.754
299.498
298.58
299.69
299.623
299.601
300.039
299.911
299.547
299.636
299.458
299.584
299.737
299.839
299.659
298.927
299.404
299.506
299.841
299.765
299.59
299.875
299.532
299.731
299.882
299.928
299.329
299.371
299.546
299.799
299.951
299.585
299.421
299.647
299.893
299.816
297.393
299.472
299.381
299.922
299.868
299.977
300
300
299.791
299.907
300
299.843
299.772
299.878
300
299.903
300
299.861
300
299.904
299.908
299.499
300
299.549
299.582
299.999
299.642
300
300
300
300
300
300
299.573
299.922
299.898
299.618
299.847
299.89
299.938
299.629
299.917
299.876
299.815
300.094
299.926
299.666
299.988
299.42
299.541
299.901
299.541
299.75
299.93
299.82
299.879