/*--------------------------------*- C++ -*----------------------------------*\
| =========                 |                                                 |
| \\      /  F ield         | OpenFOAM: The Open Source CFD Toolbox           |
|  \\    /   O peration     | Version:  2312                                  |
|   \\  /    A nd           | Website:  www.openfoam.com                      |
|    \\/     M anipulation  |                                                 |
\*---------------------------------------------------------------------------*/
FoamFile
{
    version     2.0;
    format      ascii;
    arch        "LSB;label=32;scalar=64";
    class       volScalarField;
    location    "0.45";
    object      nut;
}
// * * * * * * * * * * * * * * * * * * * * * * * * * * * * * * * * * * * * * //

dimensions      [0 2 -1 0 0 0 0];

internalField   nonuniform List<scalar> 
32842
(
0.0005618
0.000561848
0.00056184
0.000561815
0.00129304
0.000561764
3.36203
2.14822
0.000561819
0.000561662
0.667165
1.04139
0.000561604
0.000561819
0.000558298
0.000561469
0.000561567
0.000561728
0.000562122
0.00126804
0.00138347
0.00234593
0.00122631
0.000561839
0.00132327
0.000561816
0.000561777
0.000982701
0.57468
0.000561751
0.896807
0.459043
12.866
0.00056186
16.2653
4.61687
0.00157245
0.000566383
0.000562734
0.000561801
0.000561841
0.0013779
0.000561819
0.000561819
0.317592
0.000561826
1.53462
0.00056133
0.00134902
0.117248
3.84131
0.000561819
0.573363
0.280457
0.000561831
0.008437
0.000561811
0.804393
0.000561823
0.000561819
3.16015
0.549448
0.614054
0.00139628
0.000561562
7.87285
0.000561825
0.683997
0.425418
0.000563163
0.000971136
1.89073
0.484011
0.000561819
0.000561819
0.000561581
0.226396
0.000561819
0.48275
0.705499
0.00128261
0.000561818
0.000561819
0.538589
0.760041
0.000561819
0.000561819
0.011797
0.111189
0.000561546
0.00147275
0.00133726
6.17359
0.000560856
0.000561806
0.000561662
0.470118
0.000559644
0.69989
0.000561819
0.000561819
0.00212614
0.000563737
0.421247
0.48093
0.439517
0.769029
0.000436757
0.509632
0.000562056
0.000561629
0.000561589
3.81468
0.000561599
0.000563679
0.00136167
0.528092
0.796556
0.000562897
0.000561607
0.000561631
0.000561606
0.0449565
0.000561824
0.000532051
0.478612
0.381157
0.0005619
4.93711
0.000561825
0.000561818
0.000546037
0.00227337
0.475402
0.00231125
0.000561679
1.45825e-05
0.122238
0.000561634
0.000561797
0.5163
0.000561728
0.513231
1.34347
0.000561727
0.000561667
9.36775
0.000561646
0.000561819
0.00056164
0.000580007
0.160744
0.00130418
1.52642
0.000561564
0.000561819
0.000561818
0.000561649
0.000561737
0.000561622
0.00056172
0.000561818
0.00121995
0.000561819
0.000561545
0.000561743
0.000561819
0.000561524
0.000565063
1.81105
1.35876
0.00199596
1.88438
0.000561819
0.00141263
0.572053
0.000561679
0.000563683
0.000561819
0.000561536
0.000916943
0.000561579
0.000561574
0.000561794
0.53144
0.000561529
0.488522
0.00056158
0.000561753
0.000561634
0.000561673
0.0831837
0.416836
0.000561819
0.433208
0.000561751
0.00056179
0.000561809
0.46812
0.000561572
0.000561628
0.000568248
0.08858
2.44041
2.18578
0.00423711
0.000561608
0.00138481
0.435615
0.000561754
0.000561707
0.000573454
1.77615
1.76555
0.000561668
0.000561819
0.000561751
0.000563498
0.000561751
0.00056137
0.0757961
0.000561806
0.000561635
0.000561721
0.00190286
0.36582
0.000561831
0.452454
0.000561795
2.75514
0.00056158
0.000561669
0.000560928
0.000561806
1.91274
0.00132873
0.00135538
0.393758
0.000561834
0.55017
0.0857681
0.000563335
0.000561744
3.33266
0.000561535
0.000559988
0.581081
0.000561746
0.000561785
0.000564449
0.000561819
0.000561774
0.000561489
0.470854
0.000562676
0.000561756
0.000561546
1.49211
0.000561665
0.000561629
0.000561723
0.000561819
0.000561819
0.00056174
0.357515
0.000561771
0.000561642
0.000561634
0.000566008
0.000561833
0.000561629
0.473545
0.000561705
0.361471
0.000561758
0.526108
0.000561748
0.00193098
0.000561809
0.000561707
0.00056166
7.85756
6.07972
0.000561819
0.000561781
0.00428002
6.22338
0.000561819
0.00139901
0.000561819
7.22795
0.00056183
0.423035
3.92971
0.237974
0.000546297
0.41957
0.000561643
0.000562128
0.00120824
1.45363
0.000563001
0.00056163
0.000563592
0.000561817
0.000561819
0.000561819
0.000561819
0.000561656
0.553542
0.000563478
0.000561819
0.547117
0.000561594
0.000561819
0.000561679
0.000561805
1.0325
0.000561559
0.000561863
0.000561759
0.0749877
0.000561725
0.000793894
0.000561834
0.000561716
0.000561714
0.000561832
0.000561654
0.000561819
0.000561496
0.49591
0.000561819
0.000561819
0.000561677
0.000561813
0.925716
0.427363
0.000561819
0.000561618
0.000561734
0.000561771
0.0112407
0.000561819
0.552782
0.000561819
0.000561815
0.445355
0.636685
0.508057
0.000570878
5.2991
0.000561733
0.468014
0.00056168
0.000559811
0.00214871
0.000561786
0.000561621
0.000562495
0.000561819
0.000561819
0.000561799
0.594475
0.000561732
0.000560668
0.000561819
0.000561819
0.590204
0.00117576
0.000561819
7.74614
0.000561526
0.00208101
0.000561819
0.51306
0.00180392
0.000561819
2.24338e-05
0.00123469
0.00056169
0.56091
0.480824
0.000561793
0.000561774
0.000561836
0.000561818
0.000561787
0.000561793
0.000561637
0.000561663
0.000561733
0.000561669
0.000561804
0.000561715
0.000561819
0.000561768
0.000561743
0.00056174
0.000561469
0.0898746
0.000561819
0.000561669
0.000562651
1.99424
0.000561842
0.000561867
0.00215465
0.000561807
0.0015724
0.376288
0.000561542
0.000561819
0.00056177
0.000561564
0.000561821
0.000561677
0.000561637
0.000561511
3.90813
0.000561683
0.483582
0.000561817
0.00175452
2.09389
0.000561816
0.000561554
0.000561819
0.000513194
0.000561828
0.000563152
0.000561819
0.000561812
0.492349
0.00128156
0.936449
0.000561789
7.01003
2.13545
0.522319
0.0015685
1.49198
0.00162743
0.532438
0.00056383
0.000561606
0.000872281
0.000561832
0.00115762
3.46905
0.000561838
0.000561691
0.000563954
7.61126
0.00111302
0.000561863
0.000561749
0.00132281
0.000561471
0.000567565
0.000560533
0.0014422
0.000561819
0.000561823
0.000561819
0.000561497
0.000561597
0.535774
0.000561672
0.000563568
0.000561819
0.0014549
0.00130713
0.000561819
0.000561675
0.53884
0.500231
0.000561819
0.00056183
0.000561819
0.000561819
0.00128412
0.000561502
0.40842
0.537491
0.000561511
0.000561833
0.685411
0.00057281
0.000561819
0.00167375
0.000563667
0.000890927
0.000590204
0.505817
0.00140198
0.406221
0.539196
0.00203638
0.000561697
0.00195819
3.16044
0.000561617
0.504962
0.00177042
0.697047
0.00111146
0.000561644
3.10107
0.00164656
0.000561659
0.486481
0.000561698
0.471266
0.000561668
0.00056183
0.00186778
0.00213981
4.70645
2.84246
0.485194
1.54186
2.97356
2.36672
6.3681
0.523391
0.000561729
0.000561637
0.000561517
0.538569
0.433778
0.629158
0.762915
0.000561706
0.000561518
0.00113115
0.288841
0.000561841
2.1338
1.78942
0.000572616
0.861116
0.000361557
2.38499
0.000564928
0.000561819
0.000561707
0.512669
1.15078
0.000561819
0.00147291
0.000564337
0.11622
0.42377
0.000561621
0.000561762
0.00056157
0.000561799
0.0748663
0.381624
0.000561819
0.000561819
0.000561862
0.467087
0.000416524
0.675168
0.000561786
0.000561558
0.000561819
2.18728
0.545725
0.409557
1.15644
0.41704
0.00056181
5.6601
0.418725
0.000561683
2.90081
0.000561821
0.00128848
0.000561819
0.00630446
0.00135479
0.0012363
0.000561819
0.00056168
0.000561601
0.000561697
0.545209
0.00153573
0.000561828
0.000561644
1.8996
0.000561808
0.0032722
1.24502
0.64798
0.000560172
0.000561643
1.3391
1.05881
18.9392
0.000561779
5.28506
0.77587
0.183688
0.000566111
0.251209
0.000561827
0.000561622
0.000561837
0.000561819
0.000561819
0.206557
0.00133226
0.000561605
0.000561819
0.000561679
0.000561819
0.000560106
0.000561685
0.000561701
0.0241464
0.666926
0.000561681
0.000561819
0.296071
0.19961
0.186146
0.000561683
0.145469
0.000561646
0.000561819
0.000565853
1.48775
0.486635
0.000561814
0.00158945
0.000561816
0.765289
0.000561819
0.000561819
0.000561829
0.000562725
0.186442
0.000561819
0.000561819
2.60191
0.274129
0.000554043
0.000563189
0.000561584
0.428089
0.763492
0.000561819
0.490402
0.00166943
0.000561819
0.000561802
2.78319
5.63265
0.000561819
0.688063
2.33168
0.000561743
0.304171
0.000561649
0.000561819
0.00175408
0.00170329
0.000594436
0.000561753
1.69164
0.000561814
2.51004
0.000561709
0.000561816
1.44805
3.49137
0.590868
0.358501
0.000561819
0.000562724
0.00117464
0.00124202
2.1806
0.200342
4.62803
4.37648
0.000561344
0.000564865
6.33446
0.000561682
0.669443
0.000561643
0.000565553
0.604709
0.190122
0.000560521
0.000561489
0.000561708
0.000561608
0.000562221
0.000561819
0.000561634
0.000561819
0.000561819
0.558848
0.000561819
0.000564773
0.000561819
0.879156
0.000561572
0.000561798
0.000561729
0.413909
0.000561803
0.000561536
0.000561493
0.000560822
0.000561738
0.000561828
0.000593178
0.000561918
0.000561711
0.000561944
0.00056158
0.000167771
0.000559828
0.00169761
0.00084442
0.00145533
0.000561818
0.00178878
0.00232466
0.403243
0.000561513
0.000561734
0.00159752
0.160927
0.000561819
0.367655
0.00188447
0.000561819
0.000561819
0.00119426
0.000562698
0.00056306
0.565527
0.000561819
0.000561646
0.000561782
0.00160978
0.469325
0.000561544
0.00174139
0.000561798
0.00117591
1.02445
2.79994
0.00146681
0.000561826
0.636758
0.00056159
0.000561819
0.000561572
0.000561636
0.000566543
0.000559015
0.113492
0.000561819
0.000564678
0.573882
0.00182062
0.000561838
0.000562527
0.000561819
0.630521
0.0023237
0.518089
0.000561669
0.417756
0.375592
0.00141202
0.000561832
0.00118359
0.000561648
0.00158584
0.000561744
0.00056163
0.00141066
1.55429
0.461431
0.000561709
8.80893
0.00056049
0.389451
0.000561606
0.000561696
0.000561675
0.000561819
0.000560734
0.000566544
0.000561725
0.000561629
0.000561806
0.000561728
0.000561662
0.00056168
0.47186
0.00056918
0.0872747
0.000561695
0.000561733
0.00155017
2.10364
0.000561704
0.000561759
0.00136176
0.000561604
0.00056338
0.000563823
0.0021812
0.637532
0.000561819
0.00056176
0.000564993
0.000560773
0.000561779
0.000561839
0.000561656
0.000561819
8.51863
0.000561609
28.6231
0.0005617
0.000561679
0.000561494
0.000560847
0.00140054
0.000561755
0.000561819
0.000561819
0.000561652
0.140196
0.000561819
0.000563945
0.510869
0.000560195
0.475467
0.00056163
11.4908
0.000561671
0.000561738
0.649834
4.51919
0.000558479
0.00056172
5.22227
0.00171153
0.00056164
0.000561832
0.000561819
0.000561835
0.000561801
0.466763
0.522512
0.48208
0.000561819
0.520343
0.000561526
0.000560731
0.000562348
0.00105231
0.00084519
0.000561637
0.00056172
0.000561766
0.000561747
0.00056231
0.000561819
0.000561876
0.000560568
0.000560007
0.0107691
0.00165018
0.000561819
0.0933746
0.172636
0.000559445
0.00160897
0.0477442
0.000561819
0.000561602
0.000561763
0.361245
0.000561819
0.000561819
0.452198
0.00175384
0.000561615
0.000561819
0.000561819
0.000561804
0.000700238
0.11225
0.000561667
0.000560143
0.403505
0.00056418
0.000562831
0.825907
0.000561775
0.000561794
0.000561835
0.000561553
0.463885
0.000564162
0.000559895
0.000561747
0.000562488
0.00170104
0.000561819
0.403011
0.00129716
7.71576
0.000561819
0.000561819
0.000561638
0.000561683
0.000561725
0.000561819
0.0502165
1.15372
0.00109984
0.0100104
0.000561819
0.00118406
0.000561817
0.000561819
0.000564081
0.000561819
0.000561918
0.000561783
0.000561819
0.000561519
0.000561608
0.000561726
0.131292
0.000561665
0.669631
0.000561651
0.55548
0.539996
0.000561819
0.00121712
0.542052
2.21897
3.83992
0.0195704
0.000561692
0.000561836
0.000561819
0.000561836
0.0942729
0.000561833
0.13143
0.0894733
0.0370325
0.0989211
0.000858942
5.50156
0.000561819
2.29242
4.78331
0.000561684
1.63996
8.07308e-06
0.000561504
0.000561819
0.000561686
21.612
0.000561729
0.499182
0.00136169
16.7907
0.34928
0.56491
0.00207348
0.000561819
0.000561632
0.000561729
0.000561667
0.000566851
0.000561727
0.00056162
0.000561777
0.125579
0.00179644
0.000561689
1.04608
0.000561447
0.000561514
0.000561897
0.000561759
1.3409
0.232542
0.000561539
0.00056175
0.000561398
0.49175
0.0603804
0.000561578
1.49154
0.515956
0.0719252
0.000561478
0.000561567
0.821961
0.56104
0.000561774
0.00056324
0.000563484
0.000561747
4.73693
0.000561437
0.363709
0.000563545
0.000561819
0.00056163
0.000561517
0.000631226
4.28489
0.000561805
0.000561666
51.5841
0.0824454
0.449099
0.000561855
2.545
0.779132
0.000561538
0.000561827
0.000561747
0.652984
6.54107
0.00056151
0.00138442
1.30428
0.000561776
0.000735075
1.48936
0.000561453
0.000561627
0.000566261
0.000561701
9.07888
0.000561639
0.000561755
0.144252
27.6909
0.000932635
0.00101902
3.92221
0.000561811
4.43681
0.34886
0.000561668
0.61896
0.288119
2.87802
1.75713
2.12678
2.14945
0.000561659
1.84955
0.454366
0.000714899
0.000561728
0.000561867
0.000561532
0.000561781
0.000561685
0.000561508
0.000561822
1.34455
0.000561785
0.00056163
0.010766
0.000561815
0.000560395
2.21599
0.0793613
0.00138557
0.000665469
0.000561661
0.352586
9.88494
0.452951
0.000561768
0.000561765
0.000561551
0.23292
3.38514
0.00205036
0.000551653
0.640082
0.000561665
1.47991
0.000590792
0.000561721
0.154592
0.001688
0.000561637
0.023829
0.000561586
0.000561749
0.167291
2.2856
2.86454
0.000561795
0.000561641
0.000561819
0.000561667
0.000565134
0.00101355
4.925
0.000561819
0.000561813
3.9509
0.000561666
0.00056154
0.0949218
0.000561795
2.81309
3.00935
0.000561809
0.00056176
3.29577
1.08277
3.15703
1.30043
0.000561443
8.0437
0.592014
0.00246802
5.14419
0.0162639
0.591195
0.000561768
0.00056173
0.000497849
0.312379
0.0021608
0.000561829
0.138072
0.447369
5.96857
0.0673633
0.000561819
0.039683
0.373202
1.54336
0.000561819
0.000561644
4.86702
0.000561724
0.000566024
0.137128
0.000566934
8.43354
2.66636
0.00275655
0.000886028
0.000561669
0.000561693
3.09688
0.244549
0.000558988
0.000562841
0.000561819
0.175392
0.000565143
0.0345831
14.5185
0.000562602
0.326577
1.85223
0.067814
2.71506
3.43435
1.45303
0.000564583
0.539796
3.14071
1.55028
0.00108909
0.000561797
3.12491
0.000561617
0.00053336
0.0020911
0.361982
0.465011
1.89534
0.00181084
0.562957
3.14066
0.000561511
3.72494
0.00196891
0.567896
1.49123
0.000561737
0.607538
0.260866
2.15485
0.00221884
0.000561823
0.569216
0.000561819
0.00141349
0.808896
0.00124015
0.000562154
0.454135
0.221853
0.000561651
7.15947
0.000561819
0.00056166
0.00056165
0.00056165
0.618496
0.00118716
0.000561819
0.134539
0.362568
0.000561726
0.000562374
24.8452
0.000561906
0.000561819
0.000561832
3.14828
2.39686
0.000561687
6.03782
0.000561819
1.95029
0.201039
0.000568619
0.46659
0.97884
0.0347018
0.00370571
0.000562141
0.365664
7.19818
0.155095
2.73026
10.6885
0.00139919
2.69974
0.000561708
6.07188
0.000560103
0.448202
0.000561761
2.03187
0.000561523
0.00135974
0.000799444
0.85547
0.289454
0.00132854
0.000561625
4.09314
0.423772
0.000561908
0.000561819
1.87368
0.0853215
0.000559644
0.607739
0.000561494
3.54927
1.42728
0.612022
0.00056128
0.000561767
1.89708
1.08844
0.00160549
0.000561896
0.00169387
0.000561849
0.000561677
0.26875
0.000561819
0.47769
0.431846
0.000561806
0.583743
0.000561582
1.38466
0.478509
0.000561819
0.00250066
0.511383
0.000561825
0.000561819
0.000561539
0.196423
0.00056155
0.000563548
0.000563165
0.0019141
0.00056373
0.000567311
0.000561925
0.000561666
0.000561755
0.000561578
0.000561556
0.000561951
0.000561582
0.000561737
0.000561835
1.8642
0.000562992
0.000561669
2.20716
0.000103486
0.000561467
0.000561724
0.000560887
0.000561819
0.00178238
1.56014
0.000561711
0.000561886
0.000564019
0.000654183
0.229995
0.139101
0.00250471
0.387183
4.03437
0.000561733
0.000561673
7.38005
4.53713
0.00158095
0.605271
0.000561805
0.000561605
0.796677
0.00175903
2.77202
0.00162872
0.00201636
0.00108393
0.000561681
2.89746
0.000561543
0.00056184
0.00197577
3.4147
2.36109
0.354575
2.98438
0.00123872
0.00117765
0.00544324
0.000559234
1.41716
1.77967
0.00120999
0.579708
0.000561791
2.40957
0.000561924
0.000391262
0.000565234
0.88863
0.000561818
3.66927
0.00056416
0.000561665
0.00181283
2.36504
0.305127
0.000650032
0.000561557
0.000561598
3.65972
0.00056161
0.000561819
0.221423
0.000561819
1.58644
0.000559665
0.000562412
0.000572505
0.000561633
0.000561648
0.000561819
1.59398
0.000561841
0.396117
0.1895
0.000561932
0.000561723
0.000561686
0.000561656
0.000563131
0.000561708
3.20172
0.000561885
0.000561647
0.000561819
0.00180531
0.369139
0.000561635
0.000565263
0.000561577
1.85424
0.000557461
0.000561628
0.000561511
0.000561599
0.000561583
0.554116
0.000561693
0.000561735
0.00056159
1.55898
0.000563103
0.000561875
0.000561692
0.547478
0.0005636
0.000565153
0.350514
0.00056154
0.000565691
0.00056023
2.05264
0.000561506
0.000561634
0.000505735
1.41088
3.08122
0.000561553
5.28961
4.97985
3.99581
0.000561567
5.10817
0.243701
0.00140934
0.000561601
6.45313
4.55748
0.000561748
0.000561822
0.000561653
0.000561569
6.65522
4.40321
0.000561629
0.000561816
0.000540076
0.000561669
0.000563551
0.507259
0.000561797
1.77506
6.31438
0.000561826
0.000582095
0.164081
0.000592743
0.000405737
0.000562093
0.000561596
0.443503
0.00056174
2.47919
0.000561692
0.000570598
0.000561718
0.584227
0.00181837
0.000561625
0.000558864
0.000561735
0.000561537
0.000197358
0.000563598
4.59049
0.000561522
0.15495
0.151499
0.00232586
0.000561793
0.143235
0.616783
0.000561771
0.189127
0.0747416
0.00235645
0.000561865
0.000561608
0.524319
3.15448
0.152879
0.0467782
0.00056179
0.000561819
0.00292875
0.000561725
2.34821
0.000561551
0.000562004
0.00196328
0.0158635
0.000561689
0.000561819
0.813716
0.000561819
0.000561702
0.000561818
0.000561819
0.842176
0.547177
1.48147
0.000561819
0.000561857
0.000561458
4.57263
0.000546996
0.448452
1.78053
0.00184244
0.000561659
0.000561604
0.000561719
0.000561819
2.27577
1.85379
0.000561819
0.000561622
0.0005617
0.000561558
0.463553
0.000561819
0.52116
0.000561819
0.547129
0.00160219
2.18872
0.000561822
0.000561567
0.000561819
0.000568082
0.00056522
0.000569002
0.000561819
0.444279
0.000568166
1.13164
0.449281
1.25961
0.000561677
0.00056164
0.000561834
0.000561794
0.000572409
3.33132
0.000561807
0.000561676
0.000561744
0.57743
0.84619
1.97167
7.7527
4.26145
0.490752
0.00243065
19.7538
0.000552779
0.435475
0.000557873
0.000561184
0.00211232
0.134397
0.499969
0.00441601
0.000561584
0.489662
0.6603
0.000561691
0.000561711
0.000564153
0.000564316
0.000561615
0.000561793
0.00147578
0.222118
0.00056217
1.72012
0.961927
0.000561641
0.000561819
0.000561819
0.000561586
0.000561638
0.000561571
0.000563379
0.00189317
1.72594
0.000564383
1.16926
0.391497
0.000564563
1.51321
0.527994
0.000560806
0.00133785
0.753608
0.000640158
0.00148083
0.00144064
5.27566
0.646398
0.000562226
7.26777
0.000561761
0.000561741
0.162126
0.000561606
0.00056162
0.000561796
0.000561822
0.975592
0.000563072
0.000561666
0.000560657
0.000561819
0.000561544
0.000561666
0.00056169
0.000562606
0.594403
0.000561711
0.835494
0.000561509
0.000600846
0.000568501
0.00056161
26.3036
0.000562129
0.000561803
0.385716
0.000276104
0.00056167
0.000560277
0.0180686
0.00916292
0.221851
0.000558021
0.000561819
10.3617
0.000561591
0.000561641
0.000561603
0.126943
0.000561672
0.000561898
0.000561702
0.724884
0.00131315
0.000561604
0.00135701
0.00056171
0.602767
0.00184953
0.000561476
0.257112
0.000561829
0.00056164
0.000561473
0.00056161
0.000561598
0.000561651
0.00143107
0.000561648
0.000561544
0.000585664
0.599869
3.90087
0.000562757
0.000565963
0.00216783
0.000568828
0.115711
0.428101
0.0251863
0.000579587
0.000563245
0.00140033
0.000561631
0.000539007
0.000562811
0.646719
0.372451
0.00161148
0.478236
0.69466
0.000561793
0.000561833
0.762426
0.000561631
0.000561725
0.0476972
0.00164666
0.000561751
0.000561685
0.000313491
0.000561669
0.000561691
0.000561803
0.000561819
0.000561638
0.608132
0.000561663
0.000561567
0.000561738
0.000561803
0.000561819
0.126899
0.156937
0.00199818
0.000561622
0.00126049
0.00334476
0.000561766
0.000561616
0.000561737
2.11214
0.47452
7.9998
0.000561673
2.66891
0.000561659
0.000561607
0.21648
0.397701
0.000561542
0.000562083
0.000561819
0.000561703
0.000561549
0.000561643
0.000561608
0.000561649
1.05626
0.0483491
0.675049
0.000561799
0.00056179
3.90652
0.000561779
2.65788
0.000561589
0.00124885
0.000561885
0.000561818
0.000561564
4.65643
0.0971915
0.00055409
0.000552035
0.000561688
0.000561819
0.00021652
0.000561643
0.792354
0.00146305
2.86781
0.418458
0.000561819
3.28372
0.000561819
0.000561763
0.000561819
0.000561819
0.000561851
0.000561561
0.566103
0.000561627
0.00342818
0.000561819
0.000559461
0.000561649
10.4057
0.000561924
0.000561503
1.06674
0.556424
0.00056167
0.000561636
0.000561615
0.000561707
0.0429459
0.000561623
0.553942
0.000561633
0.000561725
0.0142764
2.80037
0.00056153
0.000561108
0.00056167
0.000580099
0.000561819
0.000561819
6.86269
0.000561706
0.000561819
0.00136
0.000561819
0.000561939
0.000561754
0.00056183
0.000562155
0.003406
0.000561506
0.000565318
3.2735
2.48372
1.99242
0.000561815
0.000561592
35.6879
0.000561587
0.000573592
1.47596
0.000561811
0.186485
0.187886
1.2612
0.520256
0.000561691
0.000561625
0.000561643
0.000561819
0.000561604
0.461235
0.000561658
0.444515
0.000561642
1.25134
0.0117112
0.000561677
1.59655
0.000561614
0.000561681
0.0006944
28.8081
0.652041
0.000561819
0.376425
0.000561527
0.000561819
0.000561661
0.000562059
0.000561707
0.000561819
3.16148
0.475289
0.00057762
0.000561811
0.000566001
0.000561799
6.82223
0.000561819
2.79349
0.000561568
0.000561819
0.000556954
0.00162124
0.000561774
5.71761
3.93891
0.000561591
0.000561747
0.000561667
1.11509
0.000561764
0.000561615
0.000561642
0.436592
0.000563292
0.000561819
0.000562949
0.380999
2.44805
0.285928
3.24593
1.34972
6.07246
0.000561752
0.000561587
0.00056223
4.78873
0.000561843
0.000561772
2.62043
0.00103082
0.159889
0.000561786
0.000561728
0.505534
0.464897
3.85749
0.000561801
0.000561684
1.11213
26.5469
0.00804581
3.15999
0.0963087
0.000561607
0.000561786
4.53401
0.00056173
0.000561636
0.00159298
3.28642
0.00139317
1.54809
0.517162
2.99319
0.000561655
0.234473
2.85835
0.000561661
0.000561725
4.59266
0.000564489
0.000561734
0.000561675
0.000561752
0.000568359
0.0058173
0.000563286
3.02679
0.000561842
0.000561819
0.000561772
0.000556226
0.00107038
0.0689134
0.000561695
0.000561083
0.000561508
0.897301
3.2225
0.00056161
0.000561628
0.00052034
0.000561613
0.000403459
0.000561563
0.000561549
3.08979
0.000565415
1.92958
0.000561811
2.42314
0.000561757
1.5954
1.63558
2.75782
0.000561579
0.000571845
2.48518
0.000561646
0.00056167
0.00056174
0.000561773
1.5904e-05
0.0216896
2.01302
2.3726
2.2228
6.28163
0.00150824
4.02905
0.00169286
0.00168615
0.000561514
0.000561735
0.0021055
0.000561755
0.00129836
0.000561497
0.00056258
0.000561901
0.00168415
0.000561816
0.00057044
0.00149008
0.000561717
0.000561764
0.000561558
0.000561792
0.000561416
0.000561795
0.360061
0.000561629
0.000561779
2.58799
0.000561823
4.23398
4.38154
0.485648
4.83248
0.477031
4.93542
0.528579
0.000561819
0.000561819
0.000561883
0.421783
0.000561819
1.16322
0.000561695
0.000561789
0.000561571
0.000561696
0.000561649
0.000561851
0.000561548
0.000550023
0.000561577
0.558752
0.000561712
0.000561714
7.03754
0.000564794
0.000561778
1.19497
0.403678
0.000561616
0.000561706
0.00056154
0.698121
0.743675
1.73375
6.94076
2.22125
0.000561655
0.000561742
0.000561612
0.000561636
0.00056179
0.000561543
0.00151686
0.000561631
0.00056173
0.000561639
0.000563313
0.000561777
0.00056173
0.000561719
0.000562823
1.25253
1.12193
2.97937
0.0264027
0.181303
0.000561617
0.000561743
2.77911
0.000528312
0.00056155
3.12257
0.00173627
0.000561694
0.000561734
0.00286931
0.550274
0.0776047
0.000561645
0.000561819
0.00159744
2.10236
0.000561819
0.000561865
0.000561819
0.0244544
8.29903
0.000564716
0.00171143
0.000561641
0.000561828
0.000561639
0.000561792
0.00056168
0.000561522
0.000561755
0.000561698
0.000561553
0.000561611
0.000561583
0.000561653
0.000561601
0.261548
0.000561599
0.0272964
2.90972
2.97112
2.71085
0.483844
0.527703
0.867441
0.940588
0.000561819
0.000561563
0.000576932
0.0755285
0.238065
0.412457
0.0917552
1.99651
2.23911
2.79542
4.18881
0.00138654
0.00065674
0.000564116
2.18796
0.214008
3.74265
0.000561735
0.000561833
0.000561684
0.000561342
0.441268
0.585814
0.00941754
5.6435
0.00056459
0.0005616
0.000561624
0.000561673
3.10656
0.000937132
0.000561595
0.000561564
0.700629
0.000215123
0.000561645
0.000561741
0.000563769
0.000561739
0.00056172
0.000561827
0.486221
0.00055808
0.00056169
0.000561472
4.71051
0.000563043
0.000952935
0.000575756
0.000561762
1.16001
0.000561705
0.000565647
0.000561682
0.0749771
0.227927
0.595206
0.000561681
1.65062
0.000561663
0.000561652
2.71012
0.833033
0.792059
1.92526
0.629543
0.000561819
4.6479
0.000561606
0.000561819
0.000561819
0.000562385
0.000561819
0.0773883
0.000561707
0.144197
2.33325
0.000561778
0.000561717
0.001706
0.000564125
0.567846
0.000561783
0.00466386
0.00056178
0.000561937
3.46391
0.000561841
0.000561661
4.14148
0.000561709
0.000561703
0.000561787
6.75429
1.38892
0.000561714
3.15096
0.000561735
0.000561796
0.00056157
0.000561836
0.000561721
0.000561673
0.000561702
0.000561819
0.000561751
0.000563341
0.0148677
0.000561951
0.000227053
0.000561806
0.00320889
0.00183429
0.115658
3.75421
0.000561819
0.000561819
0.00056158
2.39141
10.2232
0.000561819
0.000563207
9.38445
5.59763
0.29937
1.5596
1.9146
0.000561692
0.412537
0.433019
0.000563835
0.000561576
0.000561641
0.000565165
0.575302
0.000543483
7.72747
0.000561781
0.000561712
0.324747
26.8829
0.000563081
6.79661
6.51835
0.000561589
0.000561961
0.00167179
0.000561671
3.74236
0.00164197
0.00171479
0.00183482
0.000561808
0.000561736
0.547578
0.00580436
0.000566468
0.000561644
0.000561714
0.000561706
0.000561536
0.000561577
0.454536
0.313437
0.116584
0.000561749
0.000561797
0.000561809
0.000561631
0.00056366
0.000561655
0.000567356
0.000568583
0.432289
0.000561639
0.361152
0.455264
0.000561706
0.000562006
0.000561802
1.70907
0.000561635
0.000568665
1.66002
0.559099
0.000557026
0.000561798
0.000561841
0.000561821
0.00056345
2.47093
0.000566504
0.000561798
0.134023
3.37394
0.00056105
1.60457
0.000556214
0.00320339
0.000645597
0.000561759
0.888529
0.000561694
0.000561613
0.000561774
0.000562797
0.000563216
0.000562202
0.00223563
0.000563822
0.00087501
0.000562721
0.0824713
0.000565382
0.000561766
0.000563969
0.000564223
0.00198837
0.405085
1.79641
0.000564337
0.000324416
0.00147322
0.000561684
0.00206157
0.605291
4.72028
0.00171543
0.185723
0.000561701
0.00223849
2.80789
0.000561581
0.743515
0.794405
1.46249
0.00169012
0.00181519
0.302726
0.00056185
0.000564292
0.0155172
9.46127
0.000571755
0.000561741
0.048672
0.000565356
0.000561764
0.00181088
0.609084
6.40585
0.000561783
0.302726
0.000561639
0.302724
0.00055746
0.000561841
0.720611
0.000561818
0.00194601
5.20234
0.0471921
0.00183084
2.76921
0.000564775
0.054052
0.000561774
0.551841
0.455108
0.00138186
0.000564744
0.000645788
1.26066
2.73862
2.3213
0.000565615
0.000566039
2.8675
0.000561695
0.000561712
3.80554
2.88373
0.00170716
0.00056172
0.000561748
0.000561649
0.545167
0.000561539
0.000561569
0.000561625
0.0831353
0.000563696
0.000561819
0.0395406
0.00203875
0.000561732
0.000561631
3.89416
2.90003
0.000561501
0.000561836
0.610731
0.186736
0.000561642
0.251384
0.00223586
0.00187458
0.604057
0.000561651
0.158419
0.0014436
0.000561805
0.000563476
1.68221
0.0467144
1.1379
0.00056182
8.00588
0.303749
0.0109917
0.345274
0.0176948
1.83093
1.55376
4.23217
0.344985
2.96226
0.486042
0.000561621
0.000569367
0.507624
0.000561682
0.00056186
0.463882
0.179623
0.000561602
0.00056236
0.00056165
0.000561634
0.00163171
0.459536
0.000561517
0.187705
0.000561729
0.000561775
0.340146
0.577483
1.5755
0.000564079
0.704672
10.7156
1.54993
5.67312
0.000561947
0.000561706
0.000561676
0.000561729
0.00144737
0.00175242
0.000561701
0.000561509
3.15277
0.523769
0.0023115
6.25867
0.46038
6.21732
0.00150405
0.97887
0.000567718
2.39758
0.00150791
0.465983
0.000565821
0.000561819
3.35106
0.000561819
0.000561824
0.000560974
0.000561819
0.000561819
0.00121316
0.454636
0.0579885
0.000561819
8.68939
6.07834
0.00119862
0.000561638
0.000561604
0.000561723
0.000561815
0.0823472
0.000561875
0.632091
0.631481
0.000561579
0.000561817
5.35808
11.3924
0.89092
0.571536
0.000566571
0.00193561
0.531614
0.000561819
0.000561819
0.000560947
8.32207
0.000561684
0.000561752
0.000561776
0.000561555
0.00133316
0.000564943
0.000563978
7.68894
0.000870804
0.00253544
0.000558936
0.48476
0.543537
2.44989
9.23965e-05
0.000561491
0.647188
0.000561532
0.000561813
0.000564103
0.633928
0.000561618
0.00139701
0.564872
0.000561819
0.000561703
0.436781
0.000561833
0.000561668
1.0427
0.57266
0.000565706
0.579416
0.000561761
0.000561806
0.000561792
0.000561819
0.00056155
0.846184
0.000561741
0.79299
0.00149426
0.000561819
0.000561819
0.283143
0.000563753
0.414857
0.00152187
0.000561819
0.0005617
0.000561833
0.000561632
0.00117771
0.48008
0.000561664
0.00136764
0.491713
0.00056156
0.000561819
0.00125113
0.000562983
0.000561827
0.001269
0.00122508
0.000561802
0.000561831
2.3153
0.440435
0.00134542
0.450281
0.547871
0.000574652
0.582501
0.000561696
0.000561693
0.000561802
0.000561632
0.000561819
0.000568221
0.783154
0.000561834
0.0014174
2.39492
0.00159831
0.000562343
0.000561635
0.41311
0.0756468
0.00141697
0.506221
0.000561693
0.0921007
0.000561515
0.000561496
0.000561818
0.000563988
0.406539
0.000561834
0.546814
0.000564574
0.000561819
0.000561819
0.000561702
0.00134918
0.00117279
0.451145
0.721481
0.000561819
0.000561819
0.642148
1.23848
0.000561819
0.000561653
0.797475
0.77763
0.000259625
0.568073
0.000390019
0.00056184
0.000561819
0.000561819
0.000561543
0.00120493
0.602785
0.650018
0.000561822
0.000561613
0.00128396
0.000569134
0.449249
0.000561751
0.000561578
0.000561686
0.00136847
0.00123743
0.00159785
0.000561764
0.00136182
0.529708
0.000561794
0.000561688
0.000545978
0.524024
0.000567333
0.000561773
0.000561717
0.000561677
0.000561819
0.521216
0.00153852
0.000561831
0.000561819
0.669807
0.000561637
0.000561816
0.370526
0.374493
0.00142947
0.000561752
0.000561819
0.00140941
0.000561819
0.000561818
0.000561445
0.000563987
0.000561819
0.000561819
0.000561819
0.000561819
2.45768
0.000561819
0.000561817
0.00386199
3.64974
0.763809
7.16266
2.24901
0.000561793
0.371831
2.73395
2.16611
0.00126154
3.09196
0.000563385
0.479473
2.60215
0.115256
3.13879
0.00172753
2.68824
0.074161
0.582805
2.62439