/*--------------------------------*- C++ -*----------------------------------*\
| =========                 |                                                 |
| \\      /  F ield         | OpenFOAM: The Open Source CFD Toolbox           |
|  \\    /   O peration     | Version:  2312                                  |
|   \\  /    A nd           | Website:  www.openfoam.com                      |
|    \\/     M anipulation  |                                                 |
\*---------------------------------------------------------------------------*/
FoamFile
{
    version     2.0;
    format      ascii;
    arch        "LSB;label=32;scalar=64";
    class       surfaceScalarField;
    location    "0.45";
    object      phi;
}
// * * * * * * * * * * * * * * * * * * * * * * * * * * * * * * * * * * * * * //

dimensions      [1 0 -1 0 0 0 0];

oriented        oriented;

internalField   nonuniform List<scalar> 
62453
(
32.101
-9.11434
-19.9136
-13.61
2.29109
-3.61974
-1.73316
4.52888
0.573616
-0.0413536
-0.334017
0.12152
-0.288667
-0.0102614
-0.0776631
0.928277
6.39661e-11
-8.34893e-11
3.89605e-11
-5.5496e-12
-9.25549
1.90844
2.22994
7.92459
31.6085
47.4726
-32.6224
-33.1128
-6.45095
-19.8633
-29.5312
2.30435e-12
1.01383e-10
1.17948e-11
-2.92373e-11
-9.0335
-4.45927
28.1862
-12.4119
15.7903
-77.1087
47.6808
34.7278
-28.9354
-3.34963
8.52994
-0.978182
-25.1405
17.7525
-6.34199e-12
4.02215e-11
3.28687e-11
-1.18433e-11
3.34017e-11
-3.36563e-12
5.39358e-12
-2.13413
5.97033
1.9023
-5.26852
-18.7473
21.3519
-9.54003
5.92381
9.01853
1.98728
10.8038
-14.0459
51.5941
-36.1806
23.0744
-42.3588
6.26708e-11
-4.50016e-11
-4.61685e-11
1.1301e-10
9.3591e-12
2.87819e-11
-8.00927e-11
-5.10376e-11
5.19223
-2.71249
7.90143
-16.5234
-0.000266086
0.000423485
-0.000518947
0.00105413
-1.80932e-11
1.03936e-11
-30.8932
30.3537
2.24971
-3.42442
0.781148
-0.123644
-0.367042
0.0965727
-4.87152
0.212286
-1.30962
6.89948e-11
62.3219
1.35892
-61.085
24.9557
-10.2486
-30.2969
7.34527
4.60676
6.6172
-11.7433
8.28121e-11
-4.41895e-11
6.70038e-11
9.47254
42.2183
32.1771
-78.2894
-9.86482
-6.69117
10.0128
-0.660051
21.8509
-37.4014
29.1842
-25.373
-6.29686
-2.60773
21.079
-10.9693
-4.56814
3.33887
3.55606
-3.09909
9.72321
19.3866
-19.5614
12.4117
9.99208
14.6706
0.789208
-20.2482
-0.721514
-0.678753
7.86276
-3.08898
-0.0643351
-0.0215793
0.108796
0.0264699
-0.0032388
0.0238887
-0.00223614
-0.00299489
-3.44477e-06
1.14641e-05
-2.15472e-06
6.61377e-06
10.318
17.0963
-27.8646
2.3757
-11.6908
4.04795
1.61874
29.2488
20.0561
-17.3694
-31.938
-0.269616
15.3602
-14.2148
-16.162
5.84007e-05
-5.21775e-05
-3.85174e-05
9.40339e-05
0.155988
43.3921
19.9477
-61.557
32.4132
-13.7554
27.2958
0.00380328
-0.00257801
0.000173958
0.00156238
4.275
2.99518
-8.22293
34.1977
-25.6389
-21.0793
14.0209
0.00550568
0.0160571
-0.00876228
0.0012034
-0.864447
1.15316
-0.430562
0.185765
0.277714
0.517434
-0.0408955
-0.399777
-33.0386
10.0624
62.7851
-32.3518
3.40681e-07
6.27033e-08
-3.36776e-07
1.5523e-06
-8.2749e-08
-2.45234e-07
-11.4593
-15.9604
27.5077
-9.3301e-07
0.000185326
1.1071e-09
-1.23192e-10
-6.49335e-11
-4.69417e-10
-6.61621
-35.5964
16.3985
41.0279
-86.8092
7.46073
21.2512
59.6259
0.047622
-0.00299154
-0.0123927
10.0007
3.10995
-2.48354
-3.12459e-11
-1.10764e-11
9.73123e-11
-0.864803
-0.0327385
2.16531
0.270823
4.38081e-11
-1.05978e-10
3.86345e-10
-1.73116e-10
-2.92861
9.79124
2.53739
-9.59024
-1.02607e-06
1.30207e-05
-4.68105e-06
-7.28423e-12
-8.8074e-11
-9.52113e-11
1.0389e-10
-0.0496941
-0.0304356
-0.00765232
0.218118
7.59713
9.74714
-11.2528
-23.9782
-103.542
48.1228
59.0828
0.132835
-0.0500274
-0.040636
0.0512855
19.5568
-9.50271
-10.9696
-1.80444
-0.617559
0.52474
1.89394
0.0509275
0.0591123
-0.0191041
-0.0523033
-0.0495118
0.00785868
0.314588
-0.135684
0.197883
-0.0119429
2.95689e-10
-1.75103e-10
2.02989e-10
0.000538962
0.0020195
-0.00109503
0.0368444
-0.0301232
0.00312564
-0.0401458
1.09729
-0.358763
-0.00148571
-0.41568
-52.7746
2.11145
52.2991
6.94594
-11.8916
-20.4628
30.8108
-16.871
-40.0088
16.1567
32.8349
-0.14911
1.43993
-0.764076
0.0735362
2.8582
0.260348
3.76458
-6.49106
-4.63442e-12
6.54261e-11
0.0990098
-0.350316
1.04312
-7.90074
-2.92688
18.1585
-8.16962
5.41438
-25.7265
-8.74634e-12
2.86395e-11
4.24423e-11
-1.33926e-11
5.68206e-12
4.62778e-12
-2.4096e-11
3.96366e-11
8.39508e-11
-8.56806e-11
-1.59486e-10
3.26311e-11
8.7233e-11
5.67392e-11
-8.87332
9.0226
14.5862
-14.876
-1.45125
-0.261993
0.442082
1.36885
-0.104897
6.4615
-5.71875
18.9875
-16.8693
1.71124
-10.2044
-3.1798
59.5958
-22.1513
-33.6269
-2.67287
9.47615
-12.5561
2.36732
-13.9962
20.6669
-9.17301
-4.35681
1.87546
-0.441882
2.01919
14.0155
-5.30317
-23.7886
25.8451
10.9547
-20.4428
-24.6288
37.2212
85.8547
-38.9535
51.3294
-89.6455
46.5593
-2.91818
-17.7783
-3.41634
0.782008
1.73842
0.0938146
-3.57758e-08
4.24073e-08
5.00254e-08
-1.51507e-08
-8.06568e-11
-4.40001e-13
-4.63141e-11
-6.12241
-7.51068
15.2587
3.85709
-2.98102
1.23123
-3.63598
-24.5952
15.5978
-3.77706
5.38546
-1.51009
6.71142
11.0008
-17.1944
3.87231
-42.8025
21.3109
29.2017
-78.0372
17.2869
-11.5539
65.7999
-0.38015
0.0685735
-0.444498
1.35796
-0.288518
-1.30238
0.905568
0.347951
3.00593
-0.726782
-1.4551
3.6472
-3.42573
5.14986
5.32382
-2.13977
-7.01621
-3.33194
4.80045
0.00507935
1.0689
-5.851
-0.0448216
0.384591
-0.386204
0.350377
-0.202409
0.0479091
-0.0434306
0.486789
-0.381508
2.67822
-2.41502
2.14896
-2.39483
20.2845
-20.0493
-21.2399
14.9676
3.10613
-2.56125
-2.53041
-14.0179
16.134
-10.6148
7.51384
4.51935
1.64636
-1.98269
0.323444
-1.15598
3.07772
0.598081
-0.198358
-0.283013
-17.9769
22.6289
-27.5447
19.2219
1.08478
13.394
-7.47009
-6.23278
-8.09984
-2.62657
5.03878
-3.40954
4.80272
-7.82988
5.35396
3.21988e-09
-1.61091e-09
2.27584e-09
-1.35262
1.17829
-1.62692
1.91164
-13.0128
-2.83084
0.576277
15.1795
19.1933
-14.5878
-10.2947
2.55311
-66.4831
20.5111
15.1376
32.7885
12.9239
-11.1622
-13.109
5.93034
4.43505e-11
-4.1005e-11
-5.95442e-11
3.08276e-11
-9.89458
47.5912
-9.46412
-12.295
0.105156
1.1661
0.819797
-2.31406
2.08285
-0.5673
0.510359
10.5995
6.18062
-5.14908
-8.56612
0.713534
7.61962
-7.60062
-0.583346
-0.022207
-1.84425
1.83236
0.647427
0.009905
-0.0123921
0.0260718
-0.00610716
-0.0703049
0.351983
0.0260991
-0.141773
-11.6784
-1.33578
-15.4158
21.7479
-24.6717
-4.86752
8.88006
25.1323
9.71827
-23.4746
22.3505
-2.95389
-24.8765
-6.29307
2.8051
-0.00301526
-0.0823612
0.111691
0.0755521
-6.25279e-11
-1.22579e-12
1.29042e-10
8.78758e-11
-0.0371856
0.036981
0.116213
-0.0370868
0.754802
7.71775
-8.37359
-0.143636
26.4137
-27.5983
-13.0787
-0.523731
0.20101
0.0503538
-0.00767978
-0.109752
-55.4216
-6.69263
47.2069
-5.24785
29.1184
-17.6634
34.9024
-33.354
83.1089
-12.4017
-72.323
-0.198325
-0.895015
0.0311192
1.2129
-34.3612
26.9798
-30.2791
41.5984
0.118443
0.961336
-0.00571515
-1.01164
3.90704e-06
-2.43637e-06
4.93244e-06
-2.16869e-06
-0.0342875
-0.0508695
0.104773
0.039239
0.985988
0.103519
-0.0365943
-1.04494
5.86431
-29.7393
-0.397505
20.185
0.934348
-1.02715
0.800718
-1.19649
-0.00114023
-0.00107592
0.00690779
-0.000584198
1.58451
-3.47335
28.8715
-26.6677
-1.56535
11.3634
-8.91336
0.296094
19.9387
10.4167
-30.5852
-2.88319
32.0897
-27.4015
0.924565
-2.55776
-0.000818132
-0.922008
-1.25074
3.72749
-1.62732e-11
1.38291e-11
2.50757e-11
26.4029
-45.0371
8.83025
6.79989
11.1317
-10.9448
-8.70584
-23.6728
9.95764
6.17255
7.36791
22.5259
1.81797
11.5701
-25.6546
-26.9266
25.9271
17.1022
-13.5359
-16.7678
-10.2773
7.05248
0.340158
-1.69136
0.00599752
0.0252064
-0.0356287
0.0557317
-0.0409673
-0.0220475
0.00493628
0.120163
-4.40172e-11
-3.02201e-12
2.63851e-11
-7.55824
3.41345
2.09235
1.36117
10.5593
-5.63144
5.54266
-15.5255
-18.5132
2.77366
5.44528
0.865813
0.7249
-1.01146
-20.3315
0.028117
-1.15857
21.6469
-11.9633
-0.177738
10.6376
-2.71425
-2.46951
0.699427
-25.2668
-1.37299
0.692761
0.723883
80.0306
-37.797
-74.9955
31.186
-62.848
-36.6172
74.1475
-5.61386
6.83438
4.23132
-7.64812
13.1913
4.13898
-32.1152
16.0747
0.339611
-0.114454
0.319538
-0.244861
-0.215014
0.808764
-38.0494
-11.9016
11.453
26.4041
-18.6275
-8.38307
-1.15525
16.0251
-10.7055
9.23619
-4.98587
1.67824
-0.274172
0.0663781
-0.634701
0.872979
-0.428585
-0.464391
0.652926
6.05556
-13.8385
-3.68658
16.7343
0.000137044
2.42681e-05
8.44647e-06
-3.79481e-05
-9.28612
-25.8235
39.0885
-0.0567745
-10.6954
-18.0631
24.0436
5.11404
-4.24053
8.1756
-11.7597
1.50903
-1.58066
-0.176087
0.242408
2.80629
-8.17276
6.50106
0.238415
-0.33413
-1.1167
2.65683
5.67675
-29.2822
20.9138
8.82634
-7.26066
16.4048
-6.55806
-30.6517
15.2458
-24.7502
31.7396
5.47664
-2.38421
-3.98403
3.49161e-08
-1.5358e-08
1.37455e-08
5.85748e-10
-4.88305e-11
4.79012e-11
-6.81248
9.06326
-2.41264
-8.29091
-2.23113
0.41554
4.32106
-2.51241
22.493
-5.76601
3.47649
-18.171
-14.812
20.978
-17.5303
12.2806
-6.23534
-11.2689
5.14847
14.9247
0.80314
-0.931247
1.66929
-0.663226
-1.51893
0.539867
0.473224
0.512385
-0.560868
8.35612
-5.66119
-0.636574
-1.9165
-5.90808
8.65333
0.968276
0.341014
-1.16868
0.330701
22.8252
-8.09957
-31.3814
-5.11638e-11
-1.9867e-11
1.65645e-11
79.2436
-57.9033
94.9789
-118.636
41.0317
0.804437
-29.6597
0.0851076
-14.8064
41.1547
-43.5895
23.89
-33.3746
52.3027
18.8407
4.40679
-2.61314
-34.0228
40.9799
-34.7508
-19.6623
1.1105
-3.77449e-05
-9.52582e-05
0.000259328
3.38993
7.16318
-5.94154
3.1604
2.84924
1.51421
-2.18041
-1.09229
-24.156
16.5159
2.49963
8.06007
1.43563e-11
6.98682e-11
-3.50589e-11
-1.0229e-10
5.39283
1.16118
-2.29113
-7.8174
6.38274
10.8508
-0.40308
9.45376
-8.72147
-9.47925
22.3353
-7.27619
19.0895
-30.2156
-0.399972
0.389946
7.64336
61.1182
-11.806
-42.6783
0.511459
0.399166
-1.02897
0.258915
-1.26802
24.5854
4.18434
-17.98
20.3899
-0.600286
-11.0598
-12.3118
3.02999
0.642857
8.60845
-9.14433
0.00322971
-0.00182411
-0.00166906
0.00417398
1.37063e-10
-4.95681e-12
2.49284e-10
-1.08017e-10
0.242951
2.29712
-3.05185
1.9985
-3.67256
2.91465
1.8616
7.62134
-2.93116
5.27734
-5.88273
7.09032
-18.6749
2.72875
10.9672
12.2988
6.73069
6.2675
-24.1142
17.2878
-12.4375
23.5635
-4.89773e-07
7.99624e-07
3.07522e-07
1.59823e-07
19.0647
-19.3992
0.755477
4.60548
-2.4082
-0.317261
4.07367
28.8495
1.71703
-7.18055
-16.7361
3.29002
-19.0753
11.0183
22.2721
-4.61492
-4.74476
-0.2948
0.251046
-0.130685
0.20635
9.77589
23.1068
-36.0716
10.6839
5.75726
25.0634
-5.37209
-9.45381
-0.329578
-0.737361
1.47381
0.121037
25.5315
-19.3471
18.9904
-3.82899
3.22791
17.2497
16.0782
-30.0264
-28.9113
-3.63553
25.1834
9.17706
-2.37782
1.79934
-13.05
13.756
0.00376459
0.000707261
-0.00143387
-0.000489962
-5.8374
4.02547
21.6873
-0.0936484
0.0879809
-0.432749
3.52717
-8.86429
-3.55764
9.8532
4.34092e-11
-1.89263e-12
-3.85286e-11
8.03159e-11
11.3937
1.71914
-7.65998
-2.30177
-0.0239708
0.00161655
0.032944
0.0296227
45.7818
-24.7234
-19.6087
72.1512
2.91063e-08
-1.36391e-08
-3.81243e-09
0.038796
0.0169003
-0.0280212
-3.32245
1.49258
2.64088
-0.766812
-3.15946
-5.29126
3.77366
0.446055
1.18445
0.127008
19.9433
10.8324
-14.4943
-16.459
0.854683
-3.96756
11.4715
-9.24864
-1.76419e-10
2.07328e-09
-6.53511e-10
9.57993e-11
-26.8604
-91.1802
5.02681
15.7543
2.03579
-21.4522
-8.77713
-13.1403
7.42678
17.208
-2.01866
4.96854
-4.75172
4.35595
0.072988
0.160019
-0.144562
0.0333967
-5.15486e-11
1.8804e-11
8.91149e-11
2.94892e-12
1.88677e-07
-3.31654e-08
5.91803e-09
-0.000370539
0.0001946
-0.000177637
0.00103683
-1.76981
-6.10421
-18.6078
16.3705
22.2551
-10.2447
-11.3876
-2.85702
27.9702
-7.15139
-6.08827
9.90829e-11
1.26111e-10
5.59951e-12
-1.30161e-10
-2.13683e-07
-2.40842e-07
1.29156e-06
25.4606
-12.1434
-10.0076
-3.85733
0.000236594
-5.27301e-05
0.000221673
-0.000113264
-21.1571
9.94203
14.5983
10.6946
23.8887
-14.9948
-1.55082
-0.387519
-0.370236
-0.731088
1.51826
33.8536
17.6861
-45.0606
-14.019
1.50592
-6.00815
-12.3397
7.79798
23.2253
139.141
5.52694
10.811
-155.233
9.65395
-9.17557
-0.589824
1.07026e-10
-1.00418e-10
-1.54615e-11
2.94186e-11
-1.40916e-10
-1.48214e-10
-9.00297e-11
9.55752e-10
-6.55213
6.31773
0.419062
19.0239
-0.000266698
-0.00150554
-0.000674577
0.00714288
-4.16869
-13.5904
-1.03435
9.72924
-0.000192633
-0.00250656
0.00873864
-0.00152975
20.5219
-16.6711
-2.26879
-0.916747
-1.09629e-10
-7.28196e-11
1.03838e-10
0.0251414
0.00339579
-0.026346
0.02938
-2.67425e-11
6.11747e-11
-2.42373e-10
-1.3015e-11
8.11286
-33.2773
20.9505
1.96753
0.0404025
-0.563682
-0.685584
0.000205538
0.000117874
-0.000139414
6.97855e-11
-2.93246e-12
-3.74642e-11
-1.51934e-11
9.47373e-11
1.06016e-11
6.79945
12.7802
-32.7437
17.3792
-1.24142
-12.8385
-3.2746
29.3011
-4.31499
-5.02127
-15.8819
23.0798
-3.50692
5.73172
-5.5145
3.57658
-0.00464207
-0.0154286
0.0184934
0.0202648
1.0037e-10
3.17676e-11
-4.44278e-11
-5.96985e-05
-6.72049e-05
-0.000105031
0.000417973
0.108935
-0.4032
-0.177743
0.970262
-6.24621e-11
6.20046e-11
9.22819e-11
-1.19168e-11
-2.96938e-11
3.5063e-12
-2.92045e-11
-9.38091e-11
-4.56876
5.33255
-16.2303
17.2298
4.92152
-4.33404
3.93836
-4.40132
27.1223
1.60099
-23.0953
-3.00141e-11
1.76205e-11
19.1933
-28.7061
16.7459
4.33428
-1.51811
1.56959
0.758778
2.86885
3.66453
-3.94997
15.6599
-9.46222
-21.1433
30.7185
2.02317
-31.3424
-2.37456
11.2511
17.2641
-7.76597
-7.64151e-11
1.13379e-11
5.25638e-11
-1.14469e-10
-0.00128416
0.00170499
-0.000895995
0.00210904
-10.3857
17.1161
3.21534
9.57818
51.8912
-15.5995
-48.3173
3.84506
-1.05193
15.3825
-12.9221
-3.09533e-11
7.20751e-12
-0.00214383
0.00749642
-0.00145061
-0.00229249
-0.00868159
0.0114621
0.0140822
0.312631
-0.744261
-5.15704
6.37957
-1.16923e-10
-6.25068e-11
2.0641e-10
2.40281e-10
0.0866816
0.0627438
-0.0608894
0.00949986
-0.727569
49.8621
-41.6603
38.9421
-10.9816
10.2043
-16.8783
-7.12782
14.9065
0.00188547
0.0177945
0.0261561
-0.0149129
-1.72173
0.848391
-16.1997
-7.06252
12.8953
-13.3521
1.77212e-07
-7.73042e-08
-4.09719e-08
1.16919e-07
-3.59483
3.42635
0.0364863
0.462119
-0.000363024
-0.000425405
0.00124428
0.000581624
-4.93382
-2.18196
-11.3738
15.5565
8.94923
11.4979
-19.3064
-8.6927
12.3665
-6.22566
8.05822
-18.8808
9.27271
-4.83411
-2.56217
0.354248
-3.42074e-06
2.51676e-05
-5.01954e-07
-6.63295e-06
0.267095
-0.106846
0.0627773
-0.0889084
-4.97864
-0.191193
4.72377
3.06798
4.48675
0.427129
-1.48217
-1.65869
12.1
-17.4239
-28.3637
13.7552
22.5421
-12.7242
-4.07813
9.9924
9.66069
-9.67559
-10.1728
18.8341
1.37932
-14.9718
0.690695
0.651663
-0.317883
-0.498265
-29.9482
17.3003
-3.25703
1.75744e-06
-2.29881e-08
-1.75021e-07
-4.66375e-07
0.164093
-7.01741
6.86249
-1.49996
-23.3822
11.719
-6.91759
15.7715
10.4108
0.876132
0.900489
-1.28178
0.341742
0.778959
-0.451056
-0.320195
-1.04302e-11
-4.12033e-11
5.4027e-11
1.11369e-10
16.1791
-8.51638
-14.5059
9.31641
-5.36472
10.5893
-8.16367
2.8721
0.297186
-0.843157
-1.3627
1.93643
9.07589
8.76569
-15.3824
10.9748
-1.06566
-5.52743
-15.7855
13.0911
-33.8595
23.7119
-20.1141
5.47297
3.16298
0.112156
0.359975
10.6767
3.67833
-15.3594
0.451395
-0.683629
8.47375
-14.9441
-20.8
36.8694
1.1104e-10
7.93082e-11
-1.81131e-11
-2.91616e-11
-10.9438
-17.9074
-23.8312
60.6518
-58.9544
20.1831
30.5608
5.41526
1.12691
-33.1271
20.287
-0.00338364
-10.1803
16.0483
-40.2497
4.68424
10.9016
4.50368
-0.434061
17.3997
-14.3855
22.7448
-5.52333
18.4556
-31.7257
-5.74274
10.9157
-18.313
12.3178
2.62217
1.97839
2.64856
0.0967197
0.48468
0.0236489
23.1088
-25.487
-23.325
21.5626
-32.8247
-131.79
0.160464
0.822023
-0.440461
14.2074
-4.45236
23.6011
-29.113
0.0329194
0.02053
-0.0335298
0.0270196
-0.671836
17.6121
0.397546
-31.5612
-1.10677e-10
6.11466e-10
-1.51052e-10
1.84345e-10
12.3814
-25.0222
10.7938
-8.02569
1.10749e-10
-4.44618e-12
2.83452e-11
-2.52246e-11
0.151052
-0.102846
-0.523533
1.02785
-2.93224
1.40105
10.328
-0.00720177
0.0211821
0.0382915
-0.0186579
-2.32547
-1.49913
5.32869
-6.00101
-5.1095
2.93375
-2.52419
35.6657
-97.316
70.6127
-41.8099
-60.7459
-0.693062
4.9618
2.75101
0.925042
-2.32619
-16.5183
-11.5904
6.85628
21.6572
-24.1003
28.1881
-36.0791
26.9797
-25.5623
20.1835
-10.3608
37.5995
3.49602e-09
7.27939e-09
-3.62434e-09
-11.0004
9.40901
-17.6713
25.678
22.3961
-20.7867
4.08756
-11.3332
8.22192e-11
6.04264e-11
6.56097e-11
-1.69074e-10
2.35555e-05
-8.77169e-06
4.21332e-06
-1.18415e-06
-0.00718038
-0.0100436
-0.170372
0.330841
-21.859
-2.8353
6.29628
20.7618
1.43672e-07
5.99321e-08
-3.01036e-08
15.7931
-17.907
13.9952
-9.97828
3.34302
-22.9109
31.6167
-5.04793
-4.12798
-4.71554
13.8501
-7.2183e-09
2.28047e-08
4.86679e-09
12.8128
-8.97167
-0.825984
0.885291
-27.5863
-22.5785
10.6138
34.1239
-1.84335e-07
-1.45857e-08
6.6921e-07
-1.28213e-08
20.2966
15.0897
-8.45756
-22.4688
-12.278
4.63104
1.1489
-6.3685e-11
4.40422e-11
4.55095e-11
8.69006e-11
-7.03435e-12
4.49372e-11
-0.0735188
-0.00937869
0.0426691
0.120593
0.00979855
0.0387464
-0.00265164
-0.0133645
-0.000429546
-7.81218e-05
0.00145368
3.90663e-05
2.06873
8.07266
2.15325
-8.33518
-1.4195
-8.33534
-17.3761
25.0094
-4.04996e-08
-2.54624e-08
-30.4161
-3.65042
23.7542
1.85416
1.79895
1.66069
-5.83775
-2.56358e-07
1.25386e-07
-2.05264e-07
1.44128e-06
-1.45986e-07
6.54663e-08
5.93463e-09
-7.83241e-09
-4.25052e-09
2.50904e-08
-5.02048e-11
-5.97648e-12
2.88336e-11
1.73133e-11
-14.961
16.2918
-11.8158
0.866628
2.28461e-08
4.90863e-11
-1.85645e-11
-5.62517e-11
0.0247257
0.02671
-0.0245236
0.00218759
-6.36263e-08
1.52417e-06
-5.68595e-08
-4.9148e-07
-5.7251e-11
1.00213e-10
9.14617e-12
-3.45355e-11
-6.197e-07
-8.60396e-08
1.55936e-06
-3.08012e-08
3.53001e-08
-3.83813e-08
1.28449e-07
12.7125
-4.60358
-10.129
-11.2111
32.3006
-58.9909
-18.1951
52.6049
8.5799
-10.5838
-25.4849
22.6398
5.36309e-07
3.72946e-08
-2.75293e-07
2.93087e-07
5.99231e-09
-12.2252
3.89749
2.32385
1.36297
6.77255e-10
-2.4095e-09
1.13397e-08
-1.46236e-09
-3.8772
-3.26952
9.98566
3.40897
-1.48381
0.95209
3.38109
-0.885999
2.10735e-10
-2.28325e-11
-8.83276e-11
-3.36055
-12.0567
8.96689
-8.88202
-14.0818
-11.2132
6.80743
-6.10701e-08
7.23648e-08
-7.4642e-08
2.40695e-07
19.8253
-9.79156
-8.84137
2.11462e-10
4.37845e-10
-0.63468
3.15613
-1.43495
0.711473
-12.4272
-0.457892
-10.9321
13.2355
6.41884
-1.54028
2.09182
-14.5685
3.9939
-0.220906
-0.914973
-2.72207
-6.7531
-0.81894
-0.524118
5.54233
7.27693e-09
8.61578e-09
-5.5742e-09
-28.0065
-7.86429
11.4495
17.6113
-3.02854e-09
-3.53651e-09
1.88062e-08
4.42668e-08
-4.81914e-09
-9.39519e-09
8.25234e-09
-0.22465
18.5057
0.468697
-15.1988
0.993567
3.03089
-3.71594
-0.135748
-2.79409
-0.828272
-3.49865
11.6469
14.853
-30.2276
5.05251e-07
-2.52076e-06
5.98128e-06
-4.1522
-1.4642
18.7391
-20.3384
-11.5523
1.01727
24.9437
-5.98128
-21.9302
8.19543e-12
2.01709e-11
-9.65485e-12
-2.67188e-11
-2.47369
-8.95551
5.79952
5.53312
-11.1291
-4.22795
-6.56525
4.6656
1.61591
0.384122
-28.9626
-27.3396
-17.6927
48.886
-6.25454
-39.6453
3.97365
0.989249
-4.48243
1.43244
-1.25319
-0.757727
0.642371
0.55773
-1.91865
1.32687
0.091497
-6.29508
8.45419
-7.19415
-3.08517
1.33351
-1.68722
-12.6353
-0.869403
3.20175
18.7216
-15.2861
-8.83837
17.6218
-18.7754
32.104
-34.2297
-0.0107288
-0.0130874
0.0401482
-37.0591
-5.96834
43.3972
0.00137831
0.000420419
-0.000807739
-3.51994
2.59567
1.43852
-0.107842
-7.68866
-15.9885
8.94225
-18.2459
-37.587
10.1239
37.7741
-1.71201e-06
7.36499e-06
-3.64069e-06
8.83115e-06
0.597942
43.2331
-34.9599
0.0674979
-0.1179
-0.0186592
0.214165
54.0507
-26.904
-149.211
52.5908
112.153
-18.4622
12.4511
-13.5804
-5.23566
7.77284
0.558853
0.492811
-0.0964497
-0.949341
3.61081
-0.388557
-0.949265
-0.225101
-1.31544
-0.310833
2.27615
-0.51741
-0.299306
12.1551
-8.47391
2.91702
5.50265e-07
8.42137e-07
-4.0647e-07
-1.58066e-07
-8.75473
-5.62373
16.6755
3.65889
-11.3286
-6.86903
21.8364
-0.70639
1.7696
-0.0550445
-0.97056
-3.95246e-06
-1.70741e-06
1.08661e-05
6.47264e-07
0.000307325
-0.000155382
-8.40911e-05
0.000171523
10.4886
-9.9888
4.58996
-7.99734
22.1883
-82.1471
63.1707
-5.15062
4.49994
4.56113
9.75772
-14.1191
2.87262
-2.74615
7.35768
-1.31183
-2.74686
16.7753
-23.5523
8.52397
-0.76012
2.87348
-1.08524
44.5585
70.9133
-77.7329
-39.8337
-15.8952
150.274
-59.3334
-79.0849
0.0023459
-0.00138703
0.00136076
6.82776e-05
-5.78376e-11
2.39788e-11
8.85651e-11
-2.60837e-11
7.48261
6.95757
-5.10384
-4.97627
18.76
-4.92962
-15.9415
61.6386
-32.4915
-2.57514e-10
1.47832e-09
-1.47176e-10
-33.819
13.7972
15.6235
28.2402
-8.84932
-21.2283
-0.647551
-6.19298e-08
2.22581e-07
-4.73768e-08
1.89323e-08
-2.89564
-9.16099
-8.96388
22.3982
-15.0911
13.9577
-0.663828
-13.5803
1.24838
2.90526
2.27869
-43.2485
43.4716
1.48799e-10
-3.06783e-11
0.0667414
1.29648
-0.564334
-12.9963
7.22259
0.454975
5.90455
-3.59194
-0.705171
4.24215
27.0056
8.25506
-30.67
-11.8692
-0.465898
-13.9782
54.8413
-37.7992
-8.92822e-09
3.08439e-09
3.97843e-08
-9.9563e-09
-0.00100013
-0.00241872
-0.00104442
0.0095192
-5.55324e-11
-6.66971e-12
-3.10728e-11
1.01777e-10
2.23448
0.317928
0.342935
-2.33613
37.4221
-10.2604
-27.0414
6.44026
2.04349e-09
1.84988e-11
4.78268e-11
5.14673e-11
-5.28946e-11
-25.5328
27.9774
0.554924
-10.6331
8.4233
-16.1396
2.63138
-1.2224
8.91413
13.8043
1.13275e-06
-2.39501e-07
-2.74714e-07
-13.7387
18.2261
-9.36654
7.95381
-2.25746e-10
2.23235e-10
1.12957
-13.0311
11.2177
29.4745
-11.6422
-18.7112
-1.45439
0.335901
2.5092
0.124492
-2.32771
1.6758
-6.63035
4.08776
-27.3479
26.5224
-10.7368
-4.6318
2.39826e-11
7.05571e-12
3.40502e-11
-3.42847
4.6937
20.5496
-23.2895
-37.0614
45.1663
22.7619
-26.3965
-14.2079
-54.8997
67.6444
19.8579
-4.13336
15.8183
3.81416
-14.8852
29.5917
-59.2892
115.622
-59.0779
-0.0853882
-0.162383
0.465766
-171.058
155.131
-12.9309
25.2253
-0.0748629
1.47342
-0.953384
-0.711468
166.947
-160.181
-101.114
96.2663
4.04104e-09
-4.29201e-08
4.66304e-08
1.71691e-07
17.1111
14.078
-21.0187
1.06127e-10
-3.70634e-11
5.40247e-11
-3.77782e-11
-4.74379e-07
-2.30146e-07
3.72107e-08
1.74118e-06
-6.00239e-07
2.47232e-06
2.74361e-07
-8.21509e-08
101.896
-90.4212
-12.1137
-2.58596
6.32147e-10
5.64925e-09
7.91287
25.72
-10.9661
-0.000178007
-0.000100913
0.00157498
-0.000276103
-2.07186
-4.26113
10.8749
-22.2459
1.86754e-08
9.0876e-08
-2.43513e-08
-2.24521e-08
-9.07279
-18.5453
25.5676
2.46159
3.82372
-33.6462
26.5861
4.12971
-19.2857
-52.9868
62.8511
7.86762
-0.00122525
0.0707715
-0.0299926
7.21522
2.44474
15.1353
0.00110409
3.83618e-05
-0.000399361
-6.8406e-05
50.0181
-51.4205
-176.302
182.336
-57.0064
62.4337
-27.2418
0.488897
-0.166845
-0.13111
-9.81218
-16.518
21.5992
2.37716
-5.81203
-53.2445
1.80875
4.72853
-18.9635
16.8816
0.000156421
0.000475739
-0.000255642
3.11038e-05
17.8463
-4.55227
-7.70675
-13.624
-36.1989
-12.9525
26.0054
22.2124
8.31745e-08
-3.93041e-08
3.47256e-08
0.636071
-0.45686
0.955169
-5.56252
-12.8379
9.37101
4.7937
0.327817
0.284211
-103.409
2.12946
101.701
0.00618636
0.00149046
-0.00293011
0.000214376
-4.58734e-05
0.000101043
-1.05395e-05
7.0292e-06
-4.85838e-05
-4.34505e-05
0.000244394
-5.12917e-05
-4.10118
8.28622
-18.2108
-1.30944
-1.62983
1.73515
-0.000141106
0.000854008
-0.000179057
4.67749e-05
-3.71812e-11
2.09029e-11
1.17202e-11
7.18785e-12
-46.728
-142.223
96.5596
96.1107
100.947
-27.5038
-36.7816
-30.8346
-4.24389
17.2818
7.689
-4.57914
-23.105
27.7919
6.54749
-30.3353
29.5996
-3.94344
-18.6623
-2.14993
0.0761301
0.0520451
-0.0724955
5.3415
-0.986192
0.893935
0.0016717
-0.0106287
0.0372737
-0.00673001
1.9581e-11
7.12185e-11
-5.9812e-11
-18.3308
0.889516
20.1722
-6.09458
2.68791e-05
-5.33433e-05
-0.000268815
0.000807392
1.82165
-1.84852
1.28401
0.717569
-0.197256
-6.70829
13.4287
-6.45892
-25.7134
4.01506
30.7005
-9.24933
2.81849e-11
-5.44846e-11
5.11735e-11
-3.02675e-11
-3.64322
6.74719
-4.22784
3.27619
-3.58157
-4.39078
4.73088
-0.621074
4.41174
9.80228
3.61557
-0.365548
-0.806716
-1.72427
18.5598
2.91494
-43.5627
-6.8161e-08
2.56059e-07
-1.67222e-08
-0.968
2.64317
-16.8794
21.1514
-9.79436
26.2508
2.88869
2.67014
1.68062
-7.2345
8.66844
-4.85347
0.547645
13.479
0.91268
-10.3878
5.39657
-2.30761
0.563892
-0.460925
-0.548631
1.46883
-90.7212
22.0111
36.015
39.9007
19.2553
-13.279
-3.61729
4.34238
-0.130891
0.116009
0.469146
-0.187427
-14.0467
38.998
-23.4174
15.1738
-13.0439
-24.8653
22.2055
0.58451
-0.12744
-0.298983
-0.134975
0.844894
-0.943355
-0.192467
0.59052
9.78098e-12
2.72988e-11
5.46281e-14
-2.39274e-11
-6.99786
-9.70444
-4.1071
25.4448
-1.29528e-06
4.98043e-06
-1.88417e-06
2.66524e-06
1.45261
-0.0474722
0.222268
-0.89033
9.19863
-23.8464
22.3368
-7.85563
-0.971253
-0.177943
1.18353
-21.302
-3.00442
-20.2169
16.5556
-41.8239
-12.4048
37.4138
-2.84289
0.334367
0.84751
4.69396
0.698236
-0.190702
-0.988532
0.487533
7.39127
-42.8061
13.4906
-14.1684
19.4207
-12.5867
13.4742
44.7541
-6.53554
-59.6959
29.6831
24.5207
2.81913
19.2318
-23.0377
1.92792
-14.6142
11.5836
8.41071
-14.9362
15.5707
-0.856197
-0.0836993
-3.16843e-11
-2.61953e-11
-5.92607
1.73356
5.06223
-3.90367
6.6195
-11.448
45.5192
-23.9494
21.5054
-11.5885
7.48212
9.49461
0.00207431
0.011828
-0.00184144
9.2724
11.5456
1.37712e-06
-5.04523e-07
-1.89434e-07
4.77002e-07
2.98265e-06
-3.50104e-07
-3.00389e-07
-2.69544e-07
-6.7858
-2.45966
19.4754
-1.49135e-08
-3.83595e-09
4.69699e-08
26.9155
-22.2092
4.42994
-17.1742
3.58848e-09
-9.83815e-10
-1.78541e-08
10.4184
-16.5106
7.22468
21.443
13.8386
2.33753
-34.7879
-33.3505
9.34648
2.65147
15.6112
-7.14865
-4.54846
19.287
-14.7144
-20.032
20.4368
-1.09507
4.70494
-0.455889
-0.506157
-1.19677
-14.4732
6.03033
12.0347
-11.1573
-13.0845
4.61849
26.335
-27.3604
-9.22662
19.2968
-18.9637
4.64601
19.1844
-18.755
11.0567
-6.94618
2.12497e-06
2.35719e-06
-8.8257e-07
-15.3155
-3.63776
14.4523
-1.25594
6.46429
-7.91004
22.8801
-29.667
-3.05374
1.09504
-0.265075
5.92992
-5.13871
3.33205
7.9015
-20.4851
7.31551
-3.35938
-13.2955
17.0411
9.79116
-1.58135
2.97244e-11
-3.40188e-11
-1.06483e-11
3.19708
-3.85355
1.80376
1.57001
-0.615157
-1.35861
4.19361e-08
7.89453e-08
-1.94723e-08
-4.50725e-08
-0.00451386
0.155356
-0.0848614
0.0414254
-0.396135
-6.02506
5.61758
-3.79705
22.8984
-7.08101
-20.8039
-0.00695683
-0.069003
0.12793
0.253237
0.45858
0.908621
-5.44282
14.716
23.7338
12.0075
-7.06383
-11.3312
84.4112
2.85238
13.0349
-99.9985
2.5289e-11
-3.3078e-11
1.76865e-11
1.14025e-10
-7.67354
7.20919
-6.41983
-5.40044
8.63084
22.5216
-22.654
-2.05333e-07
3.48419e-06
-6.46042e-07
-9.54274e-07
-4.70946e-07
8.07054e-07
3.21771e-06
-1.00535
2.01074
0.534907
-1.3361
-1.36743
1.59806
-0.011782
2.15545
-1.41762
-0.538255
3.946
-17.1881
21.3249
-7.39857e-09
-1.25882e-08
7.42554e-08
3.01934e-10
-5.93121
-3.1914
19.3259
-7.68483
-2.53863
-15.8574
13.2054
-1.86371
-8.64545
8.82981
0.0287161
5.14866
2.78025
-3.55394
5.78052
10.0132
10.5908
-25.9178
-1.38789
16.6662
-2.11984
4.0679
-0.631066
0.522868
5.54876e-08
1.69235e-08
-1.40767e-08
-4.87529
2.21775
5.00344
-2.25139
1.34409
-2.57563
4.3268
-3.03042
-7.31461
-5.42076
1.29402
2.34747
8.44649
1.25393e-07
3.16454e-08
5.28881
13.085
-25.268
5.1995
3.42666e-06
-6.52342e-07
1.04096e-06
-6.161e-07
-20.0942
7.52104
27.9181
-11.7753
-26.6526
-1.48292
-12.2112
30.8337
-18.5934
-1.17738
-3.86612
21.0249
8.17194
14.8415
-13.6915
1.7778
27.3269
6.3609
-35.7455
0.103774
-0.0637515
0.0116035
-0.00282583
0.398611
0.516384
-0.2452
-1.55125
-5.48813e-11
4.97415e-11
1.77925e-11
-1.03411
-18.8873
6.19526
7.38027
7.62009
-3.49319
-5.16112
-1.7641
0.746691
-0.379128
0.576704
0.0914526
-0.0233138
0.0103449
-0.017428
5.24091
9.12856
-5.61319
13.9987
0.497927
-9.75672
7.39199
5.74843
-21.4165
-5.719
6.00101
-1.43333
2.04473
-0.517441
-6.51562
0.437429
2.93346
-7.11248
-0.00756711
0.00124361
-0.00164657
0.0167295
54.954
-3.63572
-2.95002
-71.5269
4.80019
-5.16831
-8.25225
0.698656
-6.05785
-9.84428
10.9706
7.31465
-16.7799
13.0157
8.0121
-10.3249
17.1327
-24.8592
17.961
-23.988
24.4588
12.6025
-9.65108
5.66286
-104.955
5.14254
-13.9698
1.98354
-0.712522
-1.94494
3.12019
9.41278
-52.8345
-2.75934
47.1944
3.67954e-11
5.19534e-11
-2.22232e-11
7.96132
-1.61665
-14.8174
5.0956
10.1124
-15.2957
-8.67771
15.5207
-20.5999
21.9868
-11.6397
19.1099
-5.57678
-4.27083
-0.0486235
-0.0556828
0.000760922
0.20488
4.36136
-9.57815
17.891
-19.8898
-7.45428
-7.05603
10.2337
14.4767
9.87523
-21.8676
-8.3071
5.0248
-29.3661
35.7764
-10.4332
-0.983131
-0.167565
2.18173
-0.122206
-4.90907
9.52282
-1.88486
13.74
-13.2748
10.9567
-12.6416
5.45383
5.67766
-14.8082
38.5262
-35.1252
3.94721
1.49893
-5.86557
-2.07119
6.7792
-4.01425
14.4054
-4.80164
-24.6369
9.275
-3.5925
-11.3327
11.3723
11.1824
-9.81214
-11.6116
10.1465
-15.2489
-12.7938
-2.99268
24.668
15.6381
11.0685
-14.4729
-20.158
-0.0022219
0.124997
-0.0633836
23.8646
-3.45065
-29.5982
10.1139
-0.655052
1.01115
-0.653965
0.622219
5.61517
-5.7193
-0.407696
3.44843
3.78126
13.9428
-22.261
3.11723
12.0597
-14.1613
4.47584
7.83982e-11
-4.19974e-11
-7.08344e-11
5.28346e-12
-4.32328
-3.05952
12.2783
-0.727702
-3.21462
-25.1701
25.2107
-10.9193
3.41341e-11
-1.97765
3.61618
-2.88115
-0.0462893
0.83462
-3.60027
12.7704
34.5549
-16.6592
0.000220732
2.35917e-05
8.45526e-05
-9.33184e-05
9.62918
-86.8533
37.5586
0.677722
16.5912
-23.5832
2.55126
-84.1636
9.59789
78.7738
1.96843
6.84527
8.39207
4.02974
9.52525
9.52894
-22.2649
1.25511
0.276125
-1.71927
-1.4072
3.36424
4.81835
-2.10912
-4.60642
0.209559
-6.88555
0.783052
-5.62139
13.4487
-4.69214
42.8374
-14.5682
-14.0853
-8.02541e-06
-7.36257e-06
2.81278e-05
3.27634e-08
12.3294
-5.57918
-17.0406
17.5806
46.4867
-26.8703
-21.2337
7.84402e-11
7.41206e-11
-5.26744e-11
-8.67057e-12
-3.50138
-7.82409
-2.5418
17.537
1.10055e-11
-6.75037e-11
3.57666e-11
-2.41477e-11
4.36527e-11
-7.79573
7.40796
1.89071
1.72045
-33.1571
0.949224
31.9955
75.1396
71.0935
-75.2156
-66.2442
-11.5909
1.67243
4.17374
8.35445
-16.9024
3.99089
17.3515
-21.9531
6.72055e-05
6.02102e-05
-5.31616e-05
0.87948
4.58264
-1.95334
-3.55934
20.8719
-22.5203
-0.563576
-5.70629
-2.41185
19.3031
-7.84176
-4.58352
-1.576
1.42074
4.77273
16.2458
-18.7662
1.99313
-8.37983
-13.1446
17.3584
2.54424
-14.6922
-6.26353
6.785
7.06362
-0.000186649
0.000118217
-0.000127181
0.000643035
-2.54132
3.99103
-7.08947
-0.621875
-13.815
-2.61562
1.56056
3.74552
9.45573
-1.72087
-4.45533
70.1383
-55.2266
-5.64025
-6.96234
10.3174
3.66561
2.70569e-07
-3.38053e-08
-2.8791
20.6358
-0.566226
-16.4963
5.00052
14.8129
-1.7208
1.59385
31.4624
-31.2432
3.15545