/*--------------------------------*- C++ -*----------------------------------*\
| =========                 |                                                 |
| \\      /  F ield         | OpenFOAM: The Open Source CFD Toolbox           |
|  \\    /   O peration     | Version:  2312                                  |
|   \\  /    A nd           | Website:  www.openfoam.com                      |
|    \\/     M anipulation  |                                                 |
\*---------------------------------------------------------------------------*/
FoamFile
{
    version     2.0;
    format      ascii;
    arch        "LSB;label=32;scalar=64";
    class       volScalarField;
    location    "0.45";
    object      T;
}
// * * * * * * * * * * * * * * * * * * * * * * * * * * * * * * * * * * * * * //

dimensions      [0 0 0 1 0 0 0];

internalField   nonuniform List<scalar> 
32842
(
299.976
299.779
299.998
299.998
300
299.97
547.814
250
300
299.909
250
250
299.872
300
300
299.706
299.851
299.949
299.873
300
300
299.948
300
300
299.895
299.998
299.977
300
297.037
299.958
298.14
300
250
300.015
250
250
299.807
300.059
299.861
299.988
299.985
300
300
300
299.842
300.003
298.12
299.704
300
297.113
250
300
300.009
297.438
300
299.702
299.995
297.457
300
300
250
299.795
300
300
299.85
297.332
300
299.997
300
299.737
300
299.44
300
300
300
299.943
297.432
300
299.873
299.797
300
299.999
300
300
300
300
300
299.718
298.445
299.846
299.856
299.993
298.829
300
299.993
299.904
299.852
300
300
300
300
299.808
299.84
299.348
299.877
299.856
267.039
299.857
299.899
299.655
299.893
299.867
298.878
299.876
299.757
300
300
299.425
299.671
299.865
299.889
299.879
296.282
299.997
299.69
299.988
299.956
300.038
299.099
299.998
299.999
299.807
299.97
299.867
299.908
299.877
299.799
299.758
299.88
299.988
299.983
299.944
300
299.75
299.935
299.909
250
299.896
300
299.899
299.725
299.699
299.964
298.936
299.786
300
299.999
299.89
299.943
299.888
299.931
300
300
300
299.718
299.948
300
299.822
299.848
297.364
299.753
299.867
299.372
300
300
299.336
299.915
299.682
300
299.836
299.886
299.855
299.857
299.986
300
299.828
299.831
299.86
299.959
299.89
299.913
299.849
300
300
300
299.955
299.974
299.984
299.991
299.856
299.882
299.997
299.699
298.076
297.667
299.824
299.874
299.997
299.997
299.949
299.917
299.739
299.401
299.413
299.914
300
299.957
299.96
299.951
299.632
299.704
299.993
299.896
299.936
299.907
299.886
300
300
299.967
299.525
299.863
299.913
300.011
299.993
299.26
299.943
299.94
299.834
300.009
300
296
299.861
299.944
298.214
299.81
299.877
300
299.975
299.981
299.903
300
299.975
299.791
299.905
299.954
299.965
299.842
299.439
299.913
299.884
299.946
300
300
299.984
299.963
299.974
299.898
299.887
299.969
300
299.892
299.98
299.936
299.869
299.966
299.571
299.962
299.863
299.994
299.938
299.91
299.126
298.296
300
299.96
299.709
299.262
300
299.962
300
250
300
300
299.212
296.114
299.779
299.999
299.897
299.86
300
250
299.902
299.891
299.953
299.999
300
300
300
299.89
299.887
299.938
300
300
299.868
300
299.924
299.994
299.106
299.844
300.022
299.967
296.949
299.946
300
300
299.944
299.941
300
299.889
300
299.81
300
300
300
299.908
299.997
300
300
300
299.884
299.951
299.965
299.807
300
300
300
299.998
300
300
300
299.945
299.091
299.948
300
299.921
300.051
300.081
299.983
299.884
299.953
300
300
299.99
296.826
299.951
300
300
300
299.839
300
300
250
299.827
299.933
300
299.936
299.953
300
299.865
300
299.908
299.876
299.877
299.98
299.974
300
299.999
299.983
299.986
299.885
299.913
299.945
299.915
299.992
299.928
300
299.956
299.952
299.958
299.636
299.357
300
299.908
299.787
299.315
299.936
300.018
299.853
299.993
299.863
299.976
299.835
300
299.96
299.849
299.996
299.909
299.888
299.844
250
299.901
299.967
299.999
299.833
499.466
299.998
299.848
300
299.712
300
299.879
300
299.996
299.954
300
299.986
299.964
260.303
298.164
299.98
299.891
296.186
299.839
300
299.896
299.868
300
300
299.999
299.83
300
299.919
299.932
298.903
300
300.024
299.946
300
299.754
299.919
300
300
300
300
300
299.739
299.87
300
299.904
299.911
300
300
300
300
299.9
300
300
300
300
300
300
300
299.801
298.222
300
299.816
300
300
299.855
300
299.903
299.949
300
299.822
300.083
300
299.86
300
299.967
299.915
299.917
299.314
299.804
300
299.935
300
300
299.901
299.371
299.906
299.9
300
299.919
299.896
299.91
300
299.941
299.875
299.233
250
297.429
299.469
299.39
299.421
299.013
300.054
299.927
299.895
299.814
300
297.946
300
299.901
299.927
299.818
300
294.245
299.999
250
297.846
299.808
299.336
299.936
299.52
299.976
300
299.93
299.856
299.226
300
300
299.968
295.918
299.981
299.88
299.957
299.853
299.989
295.973
296.144
300
300
299.944
299.916
296.032
300
299.969
299.846
300
298.649
299.911
300.081
298.25
300
299.995
299.306
300.077
299.91
298.136
300
300
300
299.936
299.869
300
300
299.914
299.864
299.922
300
299.932
300
299.904
298.546
299.994
299.929
298.389
299.933
300
299.896
298.172
298.392
250
299.97
290.876
299.999
296.808
299.88
297.25
300
299.889
300
300
300
296.782
300
299.87
300
299.913
300
299.99
299.926
299.919
296.63
300
299.914
300
295.942
296.662
299.676
299.907
296.962
299.902
300
299.9
298.288
300
299.997
299.923
299.998
296.999
300
300
300
299.903
299.898
300
300
297.354
297.494
299.757
299.881
299.866
300
300.083
300
300
299.844
300
299.991
298.173
297.898
300
299.966
298.252
299.899
299.963
299.895
300
299.842
299.878
299.77
299.836
298.249
299.997
297.492
299.938
299.998
298.742
297.994
299.428
299.778
300
299.937
300
299.995
298.344
299.366
298.097
298.311
299.633
299.763
298.011
299.923
296.889
299.911
299.975
299.87
299.46
300
299.896
299.938
299.882
299.899
300
299.876
300
300
299.85
300
299.873
300
299.978
299.858
299.98
299.935
299.844
299.991
299.826
299.842
299.951
299.95
300
299.844
300.026
299.932
300.073
299.849
300.03
300
300.001
299.992
300
299.999
300.1
299.884
299.999
299.807
299.95
299.893
297.589
300
299.928
299.83
300
300
299.793
299.877
299.976
299.842
300
299.891
299.969
299.961
299.876
299.839
299.906
299.988
300
298.99
299.069
299.955
300.008
300
299.864
300
299.857
299.883
299.794
299.957
297.381
300
299.768
300
299.824
300.012
299.687
300
299.871
299.836
299.925
299.901
299.97
299.891
299.889
300
299.869
299.892
299.909
299.949
299.891
299.933
291.538
300.171
299.925
298.313
300
299.932
299.858
299.931
299.912
300
299.894
299.871
299.938
299.889
299.993
299.939
299.899
299.916
299.881
299.805
299.788
299.919
299.946
299.945
299.501
299.927
299.96
299.999
299.875
299.709
299.965
299.948
299.971
300
299.968
299.833
300
299.978
299.669
299.906
300
250
299.872
296.958
299.922
299.916
299.718
299.805
300.118
299.958
300
300
299.904
296.003
300
299.871
300
300
299.913
299.89
297.656
299.904
299.941
300
299.418
299.818
299.948
299.292
299.876
299.891
299.996
300
300.001
299.978
299.961
297.095
299.968
300
299.987
299.827
299.928
299.92
299.728
300
299.895
299.938
299.971
299.944
299.65
300
300.029
299.951
299.92
299.718
299.978
300
299.716
296.706
299.987
299.915
296.981
300
299.874
299.956
299.94
300
300
299.976
299.87
299.882
300
300
299.99
300.026
299.732
299.912
299.959
300
299.98
299.943
286.77
299.969
299.986
300
299.847
299.95
299.917
299.888
299.96
299.872
299.875
300
300
300
299.139
300
300
299.893
299.922
299.942
300
296.896
298.616
300
299.884
300
300
299.999
300
299.999
300
300.052
299.98
300
299.822
299.864
299.949
299.912
299.903
300
299.903
300
300
300
300
300
298.61
298.484
297.749
299.915
300
300
300
297.07
300
296.788
296.779
297.219
296.686
300
299.148
300
299.639
250
299.919
299.317
299.741
299.816
300
299.923
295.839
299.944
299.901
299.956
250
300
300
299.933
300
299.88
299.942
299.908
299.903
299.949
299.879
299.968
299.479
299.826
299.921
299.352
299.776
299.802
299.791
299.964
299.489
297.498
299.826
299.949
299.742
299.892
299.667
299.839
299.696
299.927
299.57
299.768
299.816
299.574
299.85
299.973
299.922
299.956
299.896
299.41
299.688
299.931
299.781
300
299.88
299.816
299.806
299.917
299.987
299.905
250
299.725
299.935
300.013
299.407
299.623
299.832
300
299.963
299.821
299.672
299.817
299.911
299.457
299.966
299.717
299.485
299.774
299.882
299.898
299.929
298.651
299.896
299.904
299.525
294.21
299.749
299.965
299.493
299.979
299.09
299.924
299.902
299.788
299.836
299.439
299.614
299.521
299.44
299.9
250
299.776
299.696
299.944
300.04
299.829
299.962
299.915
299.753
299.984
271.43
299.981
299.893
299.638
299.998
300
298.223
299.775
299.635
299.804
299.905
296.836
298.337
299.96
299.872
299.961
299.605
296.944
299.286
299.865
299.686
299.172
299.895
299.673
299.825
299.942
297.123
299.826
299.88
299.699
299.855
299.954
297.412
298.727
299.338
299.976
299.879
300
299.895
299.834
299.973
299.754
300
299.996
299.327
299.901
299.844
297.276
299.987
299.422
299.38
299.994
299.964
299.389
299.559
299.478
299.442
299.777
298.539
299.605
299.852
299.229
299.824
299.904
299.976
299.94
299.764
296.439
299.893
299.984
296.795
299.682
299.852
296.826
300
299.689
295.04
299.571
300
299.882
299.624
299.933
299.92
296.475
299.775
298.747
299.52
299.834
299.955
299.91
299.927
299.455
299.934
299.918
299.775
300
295.843
299.943
296.512
250
299.77
297.601
296.824
297.766
299.411
299.356
250
299.749
300
299.394
299.615
299.996
299.988
299.406
299.888
299.866
299.948
299.692
300
299.61
299.926
299.87
250
299.815
299.344
299.917
299.919
294.701
299.932
299.874
297.943
299.342
299.932
300
300
300
299.902
250
300
299.875
299.754
297.777
299.897
298.878
300
299.906
299.893
299.884
298.39
300
300
296.558
300.049
299.913
299.767
295.75
300.045
300
299.746
299.424
299.573
299.918
299.028
300
297.176
297.751
299.853
300
297.135
299.772
299.976
299.835
297.002
299.381
299.326
298.921
298.583
299.981
299.481
299.937
298.993
300
300
299.802
299.697
299.813
300
299.796
298.216
299.741
300
299.874
299.216
299.956
300.049
300
296.513
297.755
299.836
299.838
299.771
299.938
299.492
299.854
299.642
299.958
299.456
298.549
299.877
299.682
299.911
300.006
299.831
299.678
300
299.976
299.834
299.772
299.483
299.863
299.134
299.371
300
299.91
299.378
300
300
299.827
296.083
299.84
299.868
299.888
299.901
299.808
299.701
299.672
299.915
299.965
299.852
299.845
300.075
299.826
299.958
300.011
299.38
299.702
299.907
299.522
299.768
299.785
299.938
299.835
300
299.88
299.588
299.924
299.743
299.8
299.711
297.466
299.32
299.889
299.814
299.281
299.94
299.915
299.111
299.241
299.948
299.816
299.719
299.863
299.402
299.91
299.298
299.917
299.995
300
299.907
299.301
299.839
300
299.887
299.288
298.334
299.849
299.307
300
300
299.854
299.915
299.323
299.495
300
299.128
299.985
298.381
300.054
299.854
299.846
299.715
299.999
299.302
299.89
299.898
299.943
299.72
297.153
299.931
299.845
299.867
299.572
299.87
300
299.555
300
299.576
300.059
299.879
299.948
299.871
299.894
300
299.573
300.007
299.686
299.829
299.802
299.932
299.898
299.913
299.909
299.94
299.207
300.036
299.901
300
299.796
299.927
299.884
299.849
299.861
299.318
299.942
299.859
299.795
299.876
299.864
299.965
299.919
299.945
299.862
299.35
299.915
299.954
299.93
300
299.769
299.882
299.96
299.846
300.039
299.907
299.721
299.816
299.886
299.86
299.981
299.759
299.897
299.05
299.051
299.145
299.846
298.972
299.755
299.939
299.873
298.981
299.196
299.958
299.98
299.811
299.829
299.094
299.482
299.886
299.998
299.868
299.887
299.775
298.283
299.967
299.351
299.115
300
299.866
299.71
299.783
299.884
299.903
299.738
300.056
299.945
299.234
299.92
299.867
299.94
299.778
299.974
299.884
299.888
299.953
299.839
299.968
299.992
299.535
299.824
299.897
299.91
300.036
299.981
298.017
300
299.968
299.65
299.787
299.851
299.886
299.877
299.977
299.717
297.126
299.798
299.976
300
299.96
299.933
299.844
299.84
300.107
299.929
299.688
299.916
300
299.341
300
299.922
299.999
300
297.108
299.877
299.46
300
300.023
299.794
299.017
299.789
298.333
299.039
299.844
299.911
299.876
299.936
300
299.147
299.29
300
299.874
299.933
299.846
299.896
300
299.863
300
299.847
299.853
299.761
300
299.852
300
299.892
299.882
299.863
300
300
299.917
299.744
299.879
299.743
299.91
299.899
300
299.986
299.958
299.176
299.993
299.919
299.951
299.905
299.755
299.31
299.086
299.222
299.849
299.941
250
299.903
300
299.939
299.932
299.897
299.789
299.822
299.892
299.712
299.829
299.599
299.928
299.94
299.845
300.093
299.87
299.978
299.975
299.68
299.913
299.473
299.555
299.898
300
300
299.856
299.898
299.853
300.052
300.031
299.612
299.814
299.739
299.283
299.77
299.685
299.996
300
300
299.719
299.748
299.874
300
299.735
299.922
299.633
299.569
299.968
299.951
299.831
299.837
299.873
299.971
300
299.456
299.901
299.863
300
300
299.813
299.836
299.878
299.831
300
299.939
299.876
299.807
299.87
299.766
299.872
297.155
299.8
299.784
299.897
299.75
299.9
299.888
299.76
299.917
299.421
299.79
300
299.129
299.838
299.889
299.85
296.804
299.901
300.049
299.921
299.635
299.916
299.86
300
299.922
299.814
299.851
299.79
299.752
300
299.892
299.798
299.882
299.875
299.887
300
299.897
299.823
299.781
299.851
299.587
299.924
299.748
299.956
299.725
298.132
299.915
299.442
299.754
299.716
300
299.887
299.763
300.006
299.544
299.897
299.919
299.917
299.88
299.984
300
299.95
299.893
299.957
299.713
299.93
299.951
299.92
299.739
299.902
299.906
299.976
300
299.89
300
299.903
299.85
299.942
299.993
300
297.699
297.447
299.85
299.884
300
299.829
299.96
299.88
299.944
299.605
300
295.966
299.904
298.996
299.902
299.879
299.979
299.89
299.83
299.646
300
299.919
299.837
299.894
299.879
299.906
299.628
299.444
299.922
299.981
299.978
299.2
299.959
299.438
299.864
300
300.033
299.999
299.851
297.596
299.665
299.645
299.754
299.927
300
299.666
299.905
300
299.858
299.318
300.008
300
299.167
300
299.964
300
300
300.017
299.846
300
299.887
299.587
300
299.848
299.835
250
300.058
299.825
298.444
300
299.904
299.893
299.875
299.926
299.819
299.882
299.844
299.695
299.951
299.865
299.48
299.751
299.79
299.916
299.766
300
300
298.967
299.899
300
299.87
300
300.057
299.965
300
299.661
299.866
299.815
299.722
299.758
299.42
250
299.996
299.872
296.895
299.868
299.9
298.301
299.997
298.554
298.624
298.436
299.997
299.923
299.889
299.893
300
299.88
299.947
299.893
300.008
299.894
297.749
299.84
299.908
298.497
299.869
299.894
299.795
295.299
300
300
297.83
299.784
300
299.912
299.805
299.89
300
298.587
299.903
299.745
300
299.792
299.989
298.818
300
299.403
299.851
300
299.701
299.818
299.973
299.207
299.159
299.834
299.791
299.906
299.486
299.832
299.877
299.881
299.359
299.938
300
299.838
299.875
299.357
299.207
299.213
299.756
299.216
299.964
299.735
299.646
299.4
299.985
299.955
299.501
300.017
297.232
299.98
299.938
300
299.998
299.44
299.99
299.917
299.369
292.482
299.629
299.421
296.705
299.876
299.686
299.234
299.942
299.894
300.077
299.364
299.795
299.377
299.775
299.507
299.901
297.679
299.383
299.903
299.948
299.072
299.872
299.938
299.92
299.938
299.747
299.788
299.736
250
300.009
300
299.961
299.856
300
296.403
299.911
299.877
299.817
299.579
299.573
299.862
299.756
299.857
299.863
299.768
299.847
299.841
299.348
299.852
299.065
299.996
299.55
299.959
299.658
299.671
299.409
299.857
299.775
299.596
299.894
299.912
299.932
299.971
299.788
299.716
299.608
299.318
299.515
299.008
299.971
298.65
299.968
300.107
299.82
299.943
299.934
299.96
299.827
299.812
299.629
299.951
299.972
299.998
299.821
299.965
299.933
299.97
299.8
299.979
299.688
299.987
299.902
299.886
299.971
299.442
299.995
298.994
298.893
299.908
299.189
299.907
298.758
299.999
300
300
300.036
300.013
300
299.355
299.915
299.882
299.857
299.922
299.889
300.007
299.84
299.768
299.857
299.881
299.924
299.933
299.056
299.708
299.967
298.822
300.034
299.874
299.93
299.838
300
299.267
299.335
299
299.269
299.901
299.95
299.88
299.756
299.983
299.84
300.088
299.884
299.945
299.893
299.895
299.972
299.937
299.94
299.929
299.426
299.678
299.446
299.793
296.837
299.868
299.956
299.279
299.989
299.842
299.339
299.898
299.923
299.939
299.83
296.296
299.768
299.892
300
299.943
299.331
300
300.028
300
299.501
299.512
299.98
299.946
299.89
300
299.895
299.971
299.896
299.808
299.963
299.924
299.846
299.874
299.854
299.893
299.861
299.802
299.869
299.471
299.83
299.336
299.695
300.031
300.08
299.594
299.523
300
299.683
299.907
299.895
299.85
299.834
299.952
299.325
299.234
299.556
299.54
299.883
299.708
299.875
299.227
299.45
299.884
299.951
300.005
299.792
299.718
299.894
299.777
299.811
299.798
299.847
299.841
299.877
299.908
299.761
299.803
299.768
299.84
300.016
299.853
299.892
299.942
299.885
299.949
299.945
300.001
299.942
299.898
299.928
299.768
299.329
299.67
299.734
299.737
299.971
299.637
299.924
299.882
299.908
299.756
299.448
299.85
299.899
299.827
299.897
299.889
299.731
300.135
298.775
298.076
299.754
300
299.759
299.874
300
300
299.792
300
299.411
299.942
297.526
299.749
299.947
299.934
299.938
299.709
299.89
299.98
299.781
299.978
299.607
299.697
300.008
299.897
298.283
299.943
299.934
299.973
298.782
299.457
299.938
299.962
299.95
299.98
299.855
300
299.943
299.901
299.917
300
299.975
299.898
299.904
299.955
299.713
299.842
299.889
299.957
297.212
298.861
300
300
299.852
299.706
299.281
300
299.904
297.474
299.396
299.838
298.135
299.748
299.919
299.982
300.176
299.84
299.854
299.895
299.783
299.87
299.933
299.154
299.979
299.935
298.432
250
299.777
299.1
298.436
299.706
299.858
299.856
299.904
298.399
299.922
299.938
299.876
299.969
299.93
299.476
299.846
299.854
299.885
299.933
299.928
299.836
299.862
299.994
298.522
297.447
299.961
299.975
299.995
299.896
299.748
299.897
299.94
299.843
299.768
299.884
300.054
299.918
299.937
299.902
299.971
298.82
299.895
299.785
299.729
299.819
299.912
299.988
300.001
299.993
299.706
299.038
299.705
299.946
299.477
299.552
299.975
294.153
299.892
299.838
299.795
299.958
300.114
299.927
299.876
299.961
299.683
299.649
299.612
299.983
299.671
299.795
299.762
299.811
299.734
299.963
299.873
299.872
299.909
299.917
295.73
299.817
299.926
299.952
299.917
299.958
299.994
299.834
300.031
299.927
299.914
299.867
299.902
299.857
298.767
299.213
299.817
300.075
299.851
299.829
300.025
299.893
299.831
299.097
299.823
299.929
299.87
299.891
299.947
299.838
298.28
280.75
299.98
299.915
299.899
299.942
300.004
300.016
299.868
299.92
299.898
299.638
299.784
299.907
299.149
299.843
297.786
299.903
299.86
299.409
299.775
299.939
299.794
298.473
299.206
299.608
299.867
299.912
299.21
299.92
299.936
299.404
299.521
299.911
299.96
299.949
299.894
299.938
299.845
299.849
299.891
299.92
299.798
300
299.739
299.937
299.933
299.884
299.091
299.315
299.973
300
299.815
299.727
299.785
299.909
299.964
299.93
297.699
299.887
299.834
300.006
299.985
299.907
299.643
299.795
250
299.992
298.648
298.015
299.7
299.935
299.754
299.654
299.744
299.405
299.915
299.537
299.892
299.867
299.908
299.895
299.91
300.021
300.041
299.874
299.768
299.699
299.899
299.893
299.952
299.978
299.817
299.653
299.952
299.957
295.568
300.008
299.492
299.861
299.827
298.11
299.869
299.434
299.974
299.939
299.802
299.949
300.107
299.9
299.938
299.808
299.478
299.527
299.974
298.592
300.092
298.337
300.057
299.514
299.883
299.517
299.906
299.916
300.067
300
298.134
300
300
300
300
300
300
299.988
299.831
300
297.86
297.942
300
299.898
299.877
299.94
299.997
295.488
300.031
299.912
299.932
299.926
299.999
298.484
298.248
300
300.043
299.859
300.09
300
300
300
299.999
298.233
299.923
299.963
299.977
299.847
299.999
299.81
299.679
298.382
300
299.884
299.926
300
299.959
299.225
299.693
299.805
298.572
299.829
299.995
299.91
299.937
299.879
300
299.893
300
299.935
300
299.983
299.913
298.937
300
299.708
299.886
299.965
299.993
299.985
300
299.845
298.721
299.957
299.97
299.922
300
300
298.503
299.95
299.883
299.9
300
299.933
300
299.884
300
300
299.913
300
299.907
299.853
300
300
299.951
300
299.996
300
299.991
300
299.52
300
300
300
300
299.685
300
299.926
299.93
299.987
299.886
300
299.772
299.756
300
299.869
299.346
299.918
299.691
299.898
299.513
299.42
299.92
299.433
299.931
299.399
299.818
299.808
299.999
299.877
299.824
299.999
299.816
299.917
300
300
299.932
300
300
300
300
300
300
299.257
299.302
300
299.899
299.503
300
299.795
300
299.812
300
300
300
299.844
299.996
300
300
300
299.878
300
299.866
300
299.95
299.862
299.914
300
300
299.951
299.97
299.925
300
299.989
299.906
299.658
299.848
299.907
299.974
299.934
299.896
300
300
299.997
300
300
299.981
299.887
299.998
299.909
299.873
300
299.963
300
300
300
299.999
299.59
299.923
300
300
300
300
299.684
300
299.999
299.78
299.479
299.818
298.901
299.341
299.911
299.876
299.54
299.722
300
299.274
299.901
300.087
299.692
296.218
299.584
299.831
299.388
295.926
299.763
299.57
299.792
300
299.679
299.96
299.407
299.589
298.811
299.769
299.566
299.52
298.367
299.032
298.354
299.88
299.961
299.89
250
299.636
299.803
299.97
300.021
300
299.946
300
299.707
300
299.949
299.861
299.766
299.869
299.824
300.083
299.663
297.566
299.045
299.84
299.877
299.886
298.738
299.961
299.843
299.79
299.873
299.892
299.787
300.017
300.07
299.907
298.82
299.88
299.893
299.866
299.889
299.033
299.979
300
299.999
299.862
299.94
299.987
300
299.991
298.548
298.056
299.858
299.926
299.867
299.883
299.779
299.905
299.91
299.81
299.91
300.003
299.896
300.051
300.07
294.529
250
298.664
299.889
300
299.959
299.936
299.928
299.417
300.02
300.065
299.814
299.99
298.781
299.439
299.426
299.985
298.726
298.859
299.955
299.905
299.897
299.898
299.934
299.918
297.967
299.707
299.855
299.854
299.729
299.211
299.712
299.94
299.829
299.856
300
299.914
299.759
299.879
299.947
299.708
299.92
299.832
299.323
299.893
299.887
299.838
299.896
299.544
299.921
299.237
299.863
299.902
299.789
299.468
299.809
299.956
299.779
300
299.911
299.921
299.809
299.77
299.793
299.99
299.851
299.892
299.927
299.78
299.695
299.839
299.772
299.791
299.933
298.724
299.695
297.849
300
299.992
299.599
296.041
299.545
299.538
299.684
299.325
299.443
299.227
299.725
299.7
299.855
299.796
299.857
299.824
298.347
299.845
299.176
299.302
299.687
299.981
299.871
299.922
299.402
299.654
299.831
299.794
299.731
299.839
299.475
299.913
298.87
299.262
299.928
299.838
299.979
299.939
299.829
299.435
299.804
299.526
299.799
298.875
299.864
299.805
299.491
299.325
299.362
297.127
299.941
299.884
299.188
299.096
299.975
299.714
299.772
299.87
299.853
300
299.466
299.943
299.936
299.95
299.882
299.478
299.579
299.901
299.849
299.952
299.841
299.927
299.761
299.74
299.551
299.372
299.786
299.752
299.477
297.725
299.915
299.922
299.916
299.991
299.961
299.737
299.395
299.727
299.516
299.994
299.347
299.997
299.989
299.38
299.604
299.79
299.744
299.993
299.987
299.998
299.852
299.881
299.77
299.729
299.219
299.765
299.784
298.442
299.957
299.842
299.973
299.982
299.873
299.736
294.756
299.989
299.99
299.739
299.586
299.267
296.871
299.917
299.596
299.685
299.79
299.506
297.03
299.983
299.614
299.426
299.96
299.596
299.697
297.961
299.742
298.754
299.711
299.795
299.937
299.834
299.728
300
299.99
299.258
299.649
299.5
299.368
299.429
299.375
299.994
299.747
299.057
299.724
299.236
299.73
299.703
299.493
299.485
299.466
299.286
299.831
299.33
298.361
299.864
298.144
298.218
299.656
299.837
299.879
299.685
299.305
299.914
299.36
298.583
299.798
298.859
299.985
299.836
299.681
299.87
299.574
299.725
299.809
299.886
299.79
299.776
299.867
299.317
299.971
299.817
300.031
299.835
299.804
300
299.91
300
299.999
299.888
299.869
299.769
300
299.695
299.851
299.037
300
299.757
299.762
300
299.683
299.726
299.783
299.763
298.469
299.518
299.806
299.529
299.713
299.862
299.768
299.379
299.77
299.88
299.736
299.72
298.938
299.834
299.935
299.139
299.178
296.879
299.896
299.658
299.747
299.727
299.909
299.705
299.841
299.758
299.654
299.718
299.792
297.59
299.802
299.863
299.73
298.594
299.817
299.727
297.872
297.777
299.591
298.829
298.481
299.666
299.823
299.742
300.074
298.551
297.343
299.915
299.841
299.786
299.781
299.872
299.657
299.685
298.239
299.914
299.735
299.911
299.886
299.744
299.649
299.912
297.088
298.266
299.617
297.72
299.827
299.686
299.683
299.665
299.68
299.91
299.728
299.701
299.666
299.821
299.99
299.253
298.672
299.716
299.038
299.466
299.744
299.048
299.649
299.482
299.685
299.692
299.71
299.73
298.202
299.753
299.581
299.773
299.505
299.876
299.453
299.974
299.416
299.272
298.776
299.066
298.699
300
298.407
297.534
299.787
299.891
299.039
299.421
299.331
299.527
299.636
299.762
299.751
299.776
299.764
299.684
299.825
299.915
299.845
299.742
299.903
299.703
299.886
299.931
299.707
299.795
299.922
299.9
299.817
299.881
300.035
299.832
298.76
299.673
299.808
299.651
299.891
299.911
297.367
299.944
299.898
298.903
299.388
299.556
298.626
297.223
299.732
299.888
299.464
299.606
299.41
299.889
298.738
299.821
299.425
299.627
298.705
299.816
299.728
299.647
298.164
296.294
299.249
297.755
298.763
299.967
299.836
299.849
299.716
299.666
299.731
299.934
299.901
299.557
299.539
299.067
299.68
299.715
299.671
299.871
299.805
298.057
299.749
298.169
299.664
299.665
299.781
299.731
299.612
298.03
298.024
299.719
299.77
299.69
299.728
299.042
299.834
299.83
299.801
297.972
299.618
299.923
299.816
299.794
299.283
299.883
299.852
299.81
299.314
298.944
299.012
299.006
299.964
299.135
299.578
299.054
298.243
297.663
299.871
299.871
299.654
298.465
300
298.968
299.312
299.714
299.742
299.823
299.828
299.829
299.721
250
299.901
299.052
299.793
299.785
299.865
299.849
299.889
299.762
299.583
298.695
298.684
300.005
299.951
299.613
298.712
299.74
298.716
299.89
299.858
299.192
299.307
299.301
299.786
299.005
299.746
299.788
299.89
298.789
299.998
299.878
298.142
299.921
298.242
299.872
299.875
297.99
299.997
298.852
297.353
299.099
298.741
299.807
299.451
298.126
298.895
299.927
300
298.481
299.658
299.509
299.913
298.353
299.334
299.806
299.82
299.67
299.214
299.86
299.718
299.068
299.14
299.801
299.76
299.783
299.254
298.749
299.631
299.812
299.295
299.938
299.763
299.741
299.707
299.782
299.742
298.662
299.689
299.748
299.74
299.74
298.428
299.379
299.744
299.808
299.165
299.549
299.937
296.231
299.224
299.741
298.899
299.75
299.809
298.931
299.309
299.812
299.962
298.672
299.999
299.61
299.827
299.86
299.889
299.852
299.721
299.573
299.984
299.938
298.923
299.902
299.148
298.676
299.934
296.387
299.741
299.301
299.588
299.877
297.607
298.185
299.526
298.949
299.167
297.839
299.398
298.808
298.714
299.865
299.639
299.779
299.83
299.736
299.329
296.655
297.581
299.846
299.849
299.858
299.715
298.52
299.796
299.835
299.889
298.986
300
299.752
298.946
298.936
298.759
299.552
299.868
299.732
299.069
299.003
299.797
299.445
299.758
299.011
299.651
299.936
299.772
299.941
299.936
299.876
299.214
299.924
299.819
299.579
298.705
298.779
298.735
299.952
296.851
299.858
299.96
298.822
299.711
299.824
299.887
299.782
299.913
299.719
298.666
299.802
299.793
299.875
299.495
298.327
299.66
299.899
299.785
298.784
299.749
299.919
299.866
299.851
299.975
299.912
298.95
299.851
298.843
299.776
299.92
299.852
297.623
299.904
299.902
298.684
299.76
299.743
299.759
299.793
299.193
299.785
299.768
297.942
299.791
299.563
299.735
299.763
299.371
297.858
299.742
299.765
299.813
299.771
299.771
299.873
299.808
299.928
299.88
299.794
299.959
299.984
299.858
299.791
299.747
299.59
298.892
299.486
299.354
299.796
299.654
299.362
299.189
299.403
299.791
299.814
299.613
299.848
299.821
299.903
299.39
299.605
299.764
299.459
299.819
299.65
299.81
299.649
299.54
299.851
299.811
299.501
299.393
299.488
299.729
299.952
299.721
296.793
299.858
299.723
299.877
299.854
299.74
299.968
299.9
299.783
299.728
300.012
299.776
299.618
299.955
299.834
299.942
299.963
299.864
299.922
299.825
299.769
299.664
299.794
298.922
300.015
299.815
299.975
299.897
299.709
299.261
298.789
299.786
299.999
298.946
299.969
299.868
299.192
299.599
299.774
299.903
299.466
299.885
299.788
298.902
299.688
299.046
299.625
299.372
299.281
299.991
298.869
299.983
299.001
299.889
299.925
299.864
299.798
299.845
299.558
299.782
299.053
299.572
299.871
299.689
299.739
296.578
298.835
297.768
299.051
299.569
299.578
299.785
299.91
299.519
299.388
299.746
299.771
250
299.736
299.934
298.807
299.696
299.638
299.899
299.758
299.97
299.644
299.921
299.718
299.394
299.837
299.393
299.925
300
299.818
299.888
299.833
299.091
299.712
299.05
299.884
299.378
299.999
299.447
299.686
298.656
299.637
299.822
299.855
299.841
299.926
299.493
299.917
299.487
299.516
299.776
299.99
299.861
299.994
299.495
299.923
299.97
299.948
299.84
299.817
299.89
299.516
299.942
299.884
299.602
299.738
299.877
299.589
299.546
299.51
299.339
299.545
299.918
299.493
299.984
299.878
298.869
299.938
299.598
299.884
299.733
299.822
299.782
299.854
299.946
299.843
299.904
299.689
299.94
299.819
299.429
299.428
299.377
298.468
299.931
299.64
299.803
299.871
299.654
299.692
299.012
299.837
299.992
299.555
299.774
299.755
299.751
299.992
299.79
299.893
298.936
299.817
299.802
300
299.725
299.486
299.831
299.548
299.81
299.83
299.825
299.936
299.863
299.948
299.908
299.925
299.496
299.794
300
299.81
299.931
299.456
299.721
299.734
299.257
299.444
299.861
299.723
299.938
299.917
299.688
299.62
299.5
297.212
300.049
299.886
299.921
299.511
299.287
299.797
299.614
299.531
299.864
299.95
299.783
299.399
299.665
299.376
299.658
299.894
299.824
299.547
298.908
299.516
299.923
299.758
299.461
299.931
299.455
299.812
299.918
299.931
299.765
299.775
299.106
299.842
299.992
299.445
298.931
299.628
299.907
299.904
297.851
299.696
299.718
299.932
299.884
300.005
300
300
300.031
299.912
300
299.931
300
299.94
300
299.906
300
299.965
300
299.856
299.918
299.617
300
299.903
299.803
300
299.902
300
300
300
300
300
300
299.756
299.988
299.896
299.746
299.835
299.795
299.969
299.852
299.882
299.927
299.959
299.885
299.869
299.889
299.865
299.795
299.737
299.832
299.896
299.81
299.921
299.897
299.796
299.805
299.92
299.916
299.963
300.043
299.822
299.913
299.624
299.851
299.841
299.951
299.684
299.792
299.896
299.941
299.851
299.61
299.94
299.806
299.933
299.607
299.506
299.829
299.337
299.945
299.935
299.989
299.414
299.83
299.873
299.946
299.947
299.946
299.937
299.935
299.974
299.834
299.992
300
299.996
299.36
299.304
299.189
299.908
300
300