/*--------------------------------*- C++ -*----------------------------------*\
| =========                 |                                                 |
| \\      /  F ield         | OpenFOAM: The Open Source CFD Toolbox           |
|  \\    /   O peration     | Version:  2312                                  |
|   \\  /    A nd           | Website:  www.openfoam.com                      |
|    \\/     M anipulation  |                                                 |
\*---------------------------------------------------------------------------*/
FoamFile
{
    version     2.0;
    format      ascii;
    arch        "LSB;label=32;scalar=64";
    class       volVectorField;
    location    "0.45";
    object      U;
}
// * * * * * * * * * * * * * * * * * * * * * * * * * * * * * * * * * * * * * //

dimensions      [0 1 -1 0 0 0 0];

internalField   nonuniform List<vector> 
32842
(
(-0.210238 0.0134546 -0.147411)
(0.266098 -0.0253643 -0.565407)
(-0.000922235 -0.00125858 -0.00462959)
(-0.000637668 0.00188059 -0.00594482)
(2.94995e-13 8.7286e-13 -1.2155e-12)
(0.0232594 -0.00532402 -0.118546)
(-33.6668 -12.8526 -6.15449)
(-0.555768 -7.82272 1.40249)
(-2.61535e-15 -3.37659e-13 1.17078e-12)
(-0.000829724 -0.0893197 -0.234616)
(-8.6809 30.265 -5.56005)
(0.390362 -17.7831 3.00223)
(-0.0168887 0.0404883 -0.218291)
(8.98484e-13 -1.29564e-12 5.37824e-13)
(3.85958e-13 2.99594e-13 -5.07321e-13)
(-0.0569118 -0.068219 -0.182939)
(-0.0379811 -0.114352 -0.339779)
(0.0624136 -0.0309115 -0.116956)
(-0.396555 -0.0529269 -0.172111)
(-3.91765e-13 2.08165e-12 -9.22921e-13)
(-5.20095e-13 -1.36411e-12 3.67223e-13)
(-0.02226 -0.0628348 -0.237199)
(1.21801e-06 -3.34582e-06 -1.88709e-05)
(-9.25968e-13 1.69833e-12 -7.44573e-13)
(0.0807439 0.011832 -0.192175)
(0.00338741 0.00111028 -0.00608787)
(0.0146146 -0.00394831 -0.0544948)
(6.46098e-13 -1.85134e-12 -1.333e-12)
(10.8385 -1.21467 -0.239861)
(-0.145911 0.135449 -0.214861)
(8.12059 -0.832793 0.393632)
(1.6897e-12 7.42454e-13 2.2282e-12)
(-1.21535 -15.3787 -3.48712)
(-0.0778908 0.00857316 -0.0493105)
(-2.17641 -19.2603 -7.05445)
(-8.78646 1.23987 -3.33947)
(-0.06512 0.173393 -0.0604766)
(-0.00761045 -0.00544488 0.0396409)
(-0.123677 0.0512273 -0.19145)
(-0.119757 -0.0183543 -0.154407)
(0.00157542 -0.00873984 -0.0534765)
(-0.000220462 4.31879e-05 -0.00110893)
(4.84181e-05 -1.14066e-05 -7.30834e-05)
(3.08962e-08 -3.6784e-09 -6.284e-08)
(-0.28363 -0.450904 -0.3619)
(-0.0152887 0.0239607 -0.122841)
(-14.6003 0.307432 2.85551)
(-0.231418 -0.0822876 -0.112106)
(-2.48701e-08 1.12066e-07 -1.19252e-06)
(-11.0685 -1.97856 -2.45616)
(-2.71699 -19.7503 -3.78002)
(7.54483e-07 9.76241e-06 -2.58011e-05)
(-0.0507545 0.0899806 -0.0367636)
(7.39096 -0.466183 0.613917)
(3.08267e-06 -1.575e-05 -6.75088e-05)
(0.714019 1.00645 0.292548)
(-0.000363994 0.00210847 -0.0123817)
(-0.403884 18.5232 -1.16649)
(1.37532e-09 -1.45263e-09 -7.18724e-09)
(-5.2372e-09 1.63044e-09 -1.45259e-08)
(-13.224 -8.32384 2.31111)
(0.0279426 -0.300917 0.176928)
(-1.58688e-07 3.00419e-07 -1.28529e-06)
(7.95024e-13 -2.24265e-12 -7.47738e-12)
(-0.219749 -0.0833019 -0.361279)
(-16.8935 -0.301917 -2.94875)
(-8.91062e-05 -3.39516e-05 -0.000175071)
(0.02187 -0.0932901 0.0207302)
(2.16465e-12 -2.14372e-13 -5.04451e-14)
(-0.344093 -0.105569 -0.271091)
(4.02545e-13 2.07894e-12 -5.62943e-12)
(-2.10346 1.3676 -0.313116)
(-6.02603e-08 -5.09893e-08 -1.55412e-07)
(-1.06276e-12 6.14373e-13 -2.39891e-13)
(6.86675e-06 3.83441e-05 -0.000833059)
(0.0857123 0.0856591 -0.0790032)
(14.151 1.24445 -0.0907325)
(0.000312441 -8.59282e-05 -0.000991733)
(0.018717 -0.0191539 -0.388773)
(0.0245145 -5.98333 0.547637)
(0.000467953 0.000296784 -0.000825063)
(0.000197417 0.000192187 -0.00238336)
(0.000365223 3.84888e-05 -0.00173983)
(-1.43062e-12 -7.23554e-13 -3.51001e-12)
(1.45683e-06 -8.60887e-06 -1.56465e-05)
(7.75699e-05 0.000169548 -0.000372005)
(2.92246e-05 5.06006e-05 -0.000561585)
(-0.0789443 0.112317 -0.684404)
(2.62107 -13.9389 3.42879)
(0.100231 0.0866102 -0.479179)
(-0.0766687 0.0450212 -0.535043)
(-0.00413747 0.00981358 -0.0264794)
(-7.43859 0.601449 0.018499)
(-3.30636e-14 3.3717e-13 -1.12466e-12)
(0.00263869 -0.00146525 -0.0138628)
(-0.12805 0.0442284 -0.218788)
(-0.0234409 -0.0581294 -0.385111)
(-4.87722e-13 1.00795e-12 -2.00362e-12)
(1.3676e-12 1.05863e-12 8.53732e-13)
(-1.31156e-12 1.81825e-12 -5.14263e-13)
(-1.52182e-13 -1.03499e-12 2.50312e-12)
(-0.0440938 0.135768 -0.0658457)
(-0.59078 -0.10632 0.152057)
(3.39723 0.700019 0.419873)
(-0.208253 0.0980656 -0.229744)
(0.104296 0.0577957 -0.00451472)
(-1.2369 11.5532 3.0055)
(-0.752946 0.667182 -0.0717908)
(0.272119 0.0774221 -0.19097)
(-0.243179 0.164799 0.472568)
(0.118106 0.0422743 -0.241025)
(0.0416389 -0.0364599 -0.389509)
(0.160304 -9.1827 -5.38379)
(0.0148961 0.0234014 -0.295241)
(-0.486227 0.412384 -0.29847)
(1.12047e-10 -2.56318e-10 -6.55492e-10)
(-5.49253e-13 1.4331e-12 1.93256e-12)
(1.43056 -0.756638 -3.25766)
(0.0371588 0.1853 -0.186724)
(0.0559131 0.195244 -0.350125)
(0.0860134 0.0836158 -0.308298)
(-0.0663756 -0.0924086 -0.32879)
(-0.947225 13.5727 0.297561)
(0.00314489 -0.00109112 -0.00718333)
(0.399756 -0.0202953 0.49842)
(0.0185561 -0.00148672 -0.0501485)
(-0.0276291 0.0812232 0.00263058)
(-0.0243722 -0.0580271 0.0444146)
(-0.391485 8.89676 0.0496272)
(0.00161196 -0.00185891 -0.00496374)
(0.000153185 0.000381479 -0.00275614)
(-0.815161 -0.292417 0.180989)
(0.220644 -0.0753479 -0.190691)
(-0.0852112 -0.111965 -0.290625)
(0.15493 0.0501324 -0.186342)
(-0.0537824 -0.0270576 -0.229785)
(-1.13774 -0.665386 1.23819)
(1.09706 2.29848 -0.328323)
(-0.257349 0.0230362 -0.290522)
(0.0555255 0.240415 -0.21222)
(0.0368445 0.0580236 -0.103321)
(0.0549924 -0.0237843 -0.10957)
(1.54492e-11 -3.39338e-12 -4.43415e-11)
(-0.863146 -1.11126 0.537496)
(-0.22559 -0.00426432 -0.0605071)
(0.0262441 -0.052101 -0.233502)
(12.0774 -4.90247 -1.42604)
(-0.0218895 0.0558934 -0.240972)
(1.03022e-12 3.26202e-13 -1.3331e-13)
(0.102302 -0.123391 -0.205174)
(-0.395997 0.817298 -0.246939)
(0.19855 0.0355596 -0.223976)
(0.00116668 -0.0357303 -0.121576)
(1.16395 8.8914 -0.411226)
(-0.167588 -0.00629068 0.00969579)
(-4.51695e-06 8.24231e-05 -0.000236751)
(-0.00023894 2.47118e-05 -0.00308993)
(-0.0709013 -0.0710061 -0.278659)
(-0.154767 -0.02974 -0.220404)
(0.0327886 -0.0214299 -0.32407)
(-0.168985 0.0894999 -0.168932)
(-0.000199667 0.000345122 -0.00131688)
(-4.98714e-13 2.17808e-12 8.39478e-14)
(0.000179556 0.000371616 -0.000796574)
(-0.0769489 0.190722 -0.512933)
(-0.154918 0.0617338 -0.230493)
(-0.000143001 -0.000239897 -0.00127974)
(-0.0232574 0.0219857 -0.437464)
(0.0190052 0.365981 -0.00478346)
(13.3358 0.416274 1.11994)
(-0.00514106 -0.221384 1.03448)
(0.374129 -0.0948467 -0.340205)
(-1.73722 -0.17922 2.23772)
(-1.24584e-08 5.25195e-08 -9.26522e-08)
(-0.000228018 0.000330005 -0.00100694)
(-1.07297 1.84629 3.00085)
(-0.053553 -0.0074341 -0.243827)
(-0.337788 0.0224798 0.118142)
(2.053e-05 9.05379e-06 -4.97732e-05)
(-0.0552001 0.103562 -0.432996)
(-0.0268975 0.149074 -0.017661)
(-0.0480065 0.113139 -0.38766)
(0.106908 -0.0647953 -0.303145)
(0.0010097 -0.00728781 -0.0421795)
(1.8139e-12 -2.67284e-13 1.64692e-12)
(0.08152 0.130129 -0.477005)
(-0.0422992 0.177272 -0.113451)
(0.0092972 -0.139628 -0.361474)
(0.0948873 -0.226396 -0.0519214)
(-0.038052 -0.0822273 -0.461701)
(-0.10863 0.0156171 -0.212474)
(0.364099 -0.0454093 -0.0754863)
(-7.29715e-05 -0.000146255 -0.000808343)
(4.91387e-05 5.91977e-05 -0.00088722)
(-1.00288e-13 5.63218e-13 2.8005e-13)
(0.0571802 -0.0757322 -0.0585249)
(0.0256117 -0.0585508 -0.292931)
(0.0992487 -0.0849074 -0.0244243)
(0.00863982 0.0073145 -0.0165237)
(-0.0162642 -0.0623011 -0.392183)
(-0.0598145 0.146283 -0.118279)
(0.109406 -0.0396342 0.0519458)
(-0.781164 0.943033 0.255704)
(-9.65808 -1.17227 -0.519996)
(-0.840439 20.1754 -1.4223)
(-0.210807 -0.0122397 -0.167433)
(-0.17348 0.125634 -0.295008)
(-0.00061991 0.00114382 -0.00424079)
(0.00302972 0.00747165 -0.0122504)
(0.057301 -0.346946 -0.144075)
(-0.123885 0.186569 -0.111737)
(-0.0797674 -0.0558915 -0.252142)
(0.3794 1.47877 2.23899)
(0.707176 1.25411 1.89872)
(-4.43622e-05 0.0101473 -0.232635)
(2.89392e-07 -1.15392e-07 -6.47365e-07)
(0.0308438 -0.271902 0.0588519)
(-0.130163 -0.201018 -0.00980113)
(-0.000777291 -0.159225 -0.190951)
(-0.0480076 0.0390277 -0.00163712)
(0.261131 0.587948 -1.16937)
(-0.00762804 0.00653913 -0.0193326)
(0.0260661 0.0567515 -0.308463)
(-0.0107699 -0.189744 -0.128109)
(0.0101047 0.343883 -0.307984)
(-0.0654789 0.108707 -0.100281)
(1.07644e-10 -3.03422e-11 -2.10887e-10)
(8.41145e-13 1.39309e-12 -2.96695e-12)
(0.0422218 0.0644246 -0.150573)
(0.034344 -8.77268 0.11144)
(-0.0701138 0.154291 -0.338009)
(0.0966988 0.028379 -0.269126)
(-0.116686 -0.0134898 0.0104025)
(0.00105292 -0.00356609 -0.0227363)
(-1.5568 -4.69423 2.82946)
(-0.000993428 0.0112931 -0.186723)
(-0.00250349 0.0510811 -0.1984)
(-0.496033 0.0314241 -0.0617061)
(0.108555 -0.172333 0.00309209)
(1.27519e-12 3.48362e-13 -8.43558e-13)
(-0.112505 14.1755 -0.824821)
(0.0892242 -0.0272527 -0.375688)
(0.0302772 -0.340554 -0.154466)
(11.9884 0.949487 0.220807)
(-0.159982 -0.0475453 -0.268847)
(0.0820165 -0.274042 -0.43129)
(6.96193e-07 3.54225e-07 -2.06024e-06)
(-0.00282671 0.00838614 -0.0554558)
(-0.01211 0.0376368 -0.0547737)
(-0.115089 -0.0195142 -0.245787)
(3.34359e-13 3.35569e-13 -5.76681e-13)
(0.0105768 0.00810743 -0.0882968)
(0.120116 0.192505 -0.264554)
(-0.0587152 -0.0638516 -0.280237)
(0.143808 -0.198231 -0.124494)
(0.00740573 0.0169786 -0.118496)
(0.0375595 -0.0351378 -0.469433)
(0.259733 0.790011 1.57765)
(0.110143 -0.0219343 -0.205221)
(0.0672433 0.118069 -0.25004)
(0.0530231 0.0365434 -0.111208)
(8.34411e-06 7.38174e-06 -4.1333e-05)
(-9.98828e-13 1.00565e-13 -2.55373e-12)
(0.00835185 -0.00225562 -0.0563955)
(-0.013122 0.0247285 -0.114339)
(-0.0116466 0.028648 -0.0849919)
(-0.00185816 0.0235432 -0.220766)
(-0.00776687 -0.0149234 -0.265216)
(0.179321 0.096154 -0.197528)
(-3.18778e-09 3.37313e-09 -8.00547e-09)
(-0.027968 0.0581322 -0.220756)
(-0.0132941 -0.00437748 -0.07013)
(-0.0502118 0.0194205 -0.2113)
(0.0368336 -0.0561423 -0.470075)
(-0.0519311 0.00769066 -0.0957879)
(0.108901 -0.131148 -0.0842345)
(0.105525 -0.247315 -0.134071)
(0.242424 -0.0887881 -0.145912)
(-0.00387244 -0.00680739 -0.0186052)
(0.144906 0.144812 -0.126282)
(-0.0200231 0.0494048 -0.217488)
(3.41068 4.34863 -2.96867)
(11.6062 1.49153 -1.26156)
(-1.76035e-05 -1.46797e-05 -3.38618e-05)
(-0.0795869 0.0863513 -0.215798)
(-0.17698 -0.0743952 0.249567)
(2.10849 3.90137 -1.60452)
(3.03882e-13 2.22866e-13 -1.11758e-12)
(0.0196863 0.0147941 -0.131129)
(-7.24944e-05 0.000197543 -0.000196707)
(11.8949 2.41067 3.7518)
(1.91144e-10 8.67382e-11 -1.90816e-10)
(0.000306102 0.000207987 -0.000728245)
(0.37484 6.44184 1.20315)
(-0.159851 14.9474 0.352849)
(-0.392433 -0.516184 0.032207)
(0.000299948 -0.000489385 -0.001431)
(-0.0978131 -0.0661114 -0.376568)
(0.17669 -0.0543147 -0.0519331)
(6.57443e-12 5.05189e-12 -1.53765e-11)
(-45.4846 36.1191 -27.3833)
(-0.0121671 0.0369875 -0.191743)
(0.0255686 0.0256618 -0.269327)
(0.00838445 0.0713457 -0.0696345)
(0.000215719 -0.00010394 -0.00316194)
(-1.66765e-13 -3.1689e-13 5.72649e-13)
(3.84608e-10 -1.88211e-10 -7.46308e-10)
(-1.83879e-06 1.9022e-06 -6.36051e-06)
(-0.143119 -0.0869261 -0.21295)
(0.169294 -0.122759 -0.353786)
(0.0436886 0.0224614 -0.227236)
(-1.15981e-12 -4.02673e-13 -1.89304e-12)
(-3.93425e-09 -4.07532e-09 -7.53184e-09)
(-0.107706 -0.0914388 -0.385298)
(-2.63271e-07 -1.3419e-07 -1.44168e-06)
(0.0543458 -0.0283053 -0.211822)
(0.104464 -0.142813 -0.120497)
(-3.37494 -0.148596 4.14603)
(-0.0253438 0.224223 -0.448812)
(-0.122308 0.0158627 -0.118901)
(0.103662 -0.230194 -0.0978134)
(0.593959 -14.1906 0.30173)
(0.0163901 0.0417352 -0.109408)
(1.45836e-12 -1.97192e-12 -1.57008e-12)
(-1.28719e-12 1.02004e-12 -5.15818e-12)
(0.0276961 0.0206164 -0.149436)
(0.0411559 -0.191895 -0.105656)
(-1.03237e-05 -1.49081e-05 -2.6726e-05)
(-0.0882679 0.0380748 -0.0871122)
(-1.22588e-05 1.10746e-05 -4.05517e-05)
(-0.261384 0.0389869 -0.165586)
(1.48391e-12 -1.05999e-12 -2.16367e-12)
(-2.32486e-05 0.000131158 -0.00043869)
(-1.15432e-13 -1.74992e-12 6.42656e-13)
(0.00492932 -0.120452 -0.264066)
(-0.00317975 -0.00102882 -0.0121237)
(-4.13035e-07 -7.54285e-07 -1.91424e-06)
(8.96682e-13 -6.54553e-15 -1.88691e-12)
(-1.12987e-13 -1.4649e-13 3.49796e-13)
(0.0620677 0.133457 -0.34619)
(0.072212 0.0742026 -0.141207)
(-0.00407636 0.184429 -0.0622268)
(0.22032 -0.482338 1.0502)
(1.3755e-05 -9.17011e-05 -0.000521509)
(1.02654e-12 -3.16582e-13 -4.76102e-14)
(-1.05394e-06 -1.78188e-06 -4.88336e-06)
(0.00377279 0.00333195 -0.00832158)
(1.69252e-14 -5.54285e-13 -4.61363e-13)
(-1.53538e-13 6.90333e-13 8.5787e-13)
(2.6841e-12 -9.4648e-13 -1.21767e-12)
(0.0340541 0.112378 -0.148126)
(2.15837 6.4124 0.499701)
(-0.133224 -0.0343642 -0.231197)
(9.23761e-13 -2.86927e-13 -2.28706e-13)
(0.0800878 -0.0840935 -0.232758)
(-0.0413065 -0.00368847 0.0330563)
(-0.0494359 0.0655183 0.0892915)
(0.0125924 -0.201767 -0.145634)
(0.0189113 0.0069274 -0.345492)
(0.0602409 -0.128346 -0.224189)
(-4.53563e-16 -1.47952e-13 -1.05871e-12)
(1.98327e-06 -5.12992e-06 -1.70304e-05)
(0.0905426 -0.0922909 -0.0659055)
(-2.07874 11.8598 -2.56041)
(0.0130498 0.00641149 -0.16715)
(1.92015e-13 -1.17287e-12 7.81505e-13)
(5.13517e-06 1.31023e-05 -3.29812e-05)
(4.71588e-05 -8.37433e-06 -0.000116811)
(0.0661615 -1.18984 -0.635548)
(-2.5509e-13 2.84262e-13 -3.03271e-12)
(-0.000395236 -0.000244932 -0.000631446)
(21.8044 -17.2461 13.8166)
(0.04928 -0.0815609 -0.314345)
(-0.00851484 0.0583656 -0.246762)
(-7.60844e-06 -1.8558e-05 -0.000162905)
(-0.0371885 -0.116219 -0.0891772)
(0.0112818 -0.238003 -0.194327)
(3.40684e-11 -2.62792e-10 -1.70841e-09)
(-0.2675 1.19375 0.0751958)
(1.19231e-05 2.02661e-06 -1.17931e-05)
(0.000474987 0.0461966 -0.207166)
(-0.135134 0.128528 -0.193077)
(-0.0677099 -0.192408 -0.150764)
(-0.19325 -0.0746026 -0.0929732)
(0.038111 -0.27991 -0.04658)
(-7.31364e-08 -9.39067e-11 -1.9418e-07)
(-0.00011977 0.000693927 -0.00273583)
(-0.00476666 -0.0192017 -0.0623107)
(0.00385744 0.00498539 -0.0506834)
(-0.0462634 0.134142 -0.254055)
(0.0516051 -0.00168704 -0.148671)
(0.177178 -0.00877273 -0.10866)
(0.148353 -0.090315 -0.199317)
(-0.00327725 0.000918165 -0.0103776)
(-0.0521936 0.0619728 -0.159532)
(3.21129e-09 3.03253e-09 -1.57691e-08)
(0.0515562 -0.0494722 -0.120103)
(0.150139 -0.182159 -0.133707)
(0.182205 -0.147938 -0.0981758)
(0.00837332 0.00664512 0.0737905)
(0.531077 1.76599 4.64344)
(-7.88021e-13 -5.80663e-13 -6.35693e-13)
(-0.205755 0.0158886 -0.258729)
(0.00200702 0.0508933 -0.778864)
(0.263191 3.97137 2.82028)
(-0.0340806 -0.244541 -0.123809)
(-0.174046 0.0212903 -0.0922873)
(-0.34089 0.0566709 -0.281205)
(-0.000382792 0.00957119 -0.0205167)
(-0.0686471 0.304868 -0.0163156)
(0.220755 -0.140185 -0.29837)
(0.187415 0.0636593 -0.384592)
(5.76951e-13 -8.03666e-13 -8.5363e-13)
(-0.0309859 0.0948578 -0.206605)
(-0.0418461 -0.259463 -0.388095)
(0.312027 0.0484455 -0.168006)
(-0.185011 0.0537502 -0.232688)
(-0.219043 -0.0153925 -0.182513)
(-0.0713941 0.2539 -0.152173)
(11.1525 0.275863 -2.01455)
(-0.200093 -0.0840181 -0.240157)
(-0.0108169 -0.00960463 0.0120851)
(-0.00129128 0.00124179 -0.00367255)
(-0.00624094 -0.152005 -0.51651)
(27.2012 4.09693 7.81634)
(-0.00309911 0.00154563 -0.00658108)
(0.00950815 0.0693659 -0.375023)
(-9.71334e-05 -9.73545e-05 -0.000445082)
(-0.240915 -0.109931 -0.447112)
(2.57986e-13 -2.85325e-13 -4.05437e-12)
(-0.0708829 0.196733 -0.212279)
(3.21098e-14 2.2613e-13 4.31169e-13)
(0.00426658 -0.00051663 -0.0128547)
(0.0413882 0.105236 -0.140913)
(1.23958e-05 9.86163e-05 -0.00028362)
(-0.00863572 -0.00658085 -0.0404525)
(-0.000832328 0.00279783 -0.103245)
(12.6618 -2.15503 -0.627183)
(-1.24682 17.6155 -1.19215)
(0.0181984 0.0114218 -0.0527222)
(0.00108515 0.071444 -0.379023)
(-13.711 -1.87022 -1.92765)
(0.0224533 0.193029 -0.429025)
(-2.43459e-11 2.16728e-11 -6.59286e-11)
(0.038972 0.0382749 -0.360101)
(0.274583 0.0261157 -0.313358)
(2.12508e-12 3.17986e-13 -7.10179e-13)
(-1.06014e-07 -3.07696e-08 -1.28013e-07)
(-0.000340011 0.000507707 -0.0027358)
(-0.881686 0.700879 -2.1126)
(-1.41508e-10 -2.16171e-10 -7.49677e-10)
(-0.20508 0.237963 -0.249754)
(-0.244458 0.0574357 -0.189266)
(1.25432 8.42473 -1.66993)
(2.19282e-11 1.56056e-11 -1.42287e-10)
(-0.173747 0.107543 -0.0144274)
(-0.259393 0.0144413 -0.235633)
(-1.72972e-09 7.45983e-10 -5.82917e-09)
(0.478775 -0.16735 -0.463233)
(0.0405833 -0.156658 -0.158228)
(-3.25155e-14 1.13334e-12 -7.82113e-13)
(-1.9874e-12 -1.2958e-12 -3.2567e-13)
(0.000270246 -0.000279857 -0.0014964)
(1.38972e-05 3.47418e-05 -0.00015877)
(-4.01161e-08 -2.19991e-06 -7.98838e-06)
(-0.0884336 0.15597 -0.113358)
(-0.0271451 0.100764 -0.208613)
(6.57746e-10 -5.02415e-11 -1.47464e-09)
(-0.117371 -0.0338001 -0.252962)
(0.564957 0.413517 -0.176672)
(-1.08688e-09 -5.83005e-10 -6.05308e-09)
(-3.96864e-10 -6.67188e-10 -3.83889e-09)
(-1.55363e-11 -1.75538e-12 -1.60794e-10)
(1.48537e-12 -7.55149e-14 -9.10835e-13)
(0.291203 -0.00999865 -0.0888223)
(-4.22573e-11 -1.75302e-11 -2.41494e-10)
(-1.74128e-13 2.25387e-13 2.37195e-13)
(0.000168841 0.00010266 -0.000447466)
(-4.34536e-09 1.3854e-09 -1.10043e-08)
(-9.56333e-13 -4.44422e-13 -9.13067e-13)
(1.92309e-09 -1.62364e-10 -1.32178e-08)
(1.07619e-10 -2.17692e-10 -1.2767e-09)
(-0.182043 0.0309884 -0.103384)
(-10.2957 -4.16319 -1.73877)
(1.01715e-10 2.03832e-10 -5.90801e-10)
(-0.0879415 -0.039631 -0.446944)
(2.00185e-09 7.36867e-10 -3.26881e-09)
(1.94407e-10 -3.92719e-10 -8.89534e-10)
(-0.124876 0.141431 -0.382582)
(1.27174e-11 2.14841e-11 -4.28518e-11)
(-0.141924 -0.0484968 0.0216609)
(-0.12547 -0.348965 -0.260016)
(1.64474e-12 -5.69059e-13 -4.85467e-13)
(-0.104472 -0.178223 -0.289202)
(0.127452 0.129208 0.0151478)
(-4.94928e-11 -1.69851e-10 -2.28483e-09)
(-0.144326 0.163013 -0.405266)
(-1.12934e-12 -3.23222e-12 -2.86088e-12)
(0.453771 -0.210042 -0.116449)
(0.0633935 -0.0652105 -0.152827)
(-0.00350942 -0.076531 -0.169666)
(1.23784 3.2464 1.83285)
(-0.0757477 -0.172981 -0.222603)
(-2.04179e-11 3.75491e-11 -8.51201e-11)
(0.470461 -0.0427961 -0.178824)
(5.1667e-12 -6.5303e-12 -1.26078e-10)
(-2.23944e-10 -1.31797e-10 -3.29801e-10)
(-0.0186719 -0.0670916 -0.251645)
(1.37256 3.38277 1.28008)
(0.0538464 -0.144627 -0.211808)
(-0.0638688 -0.0151765 -0.288193)
(9.43608e-09 4.49201e-08 -7.78346e-08)
(-0.0264105 0.203897 -0.185465)
(-0.0822083 -0.210788 -0.167806)
(-0.0413443 -0.143056 -0.272669)
(4.29954e-13 -6.8739e-14 -1.42135e-12)
(-0.0639124 -0.169602 -0.108373)
(-0.0781767 -0.013672 -0.0693819)
(-0.474881 5.81693 0.820304)
(-11.0313 18.8465 2.3716)
(-2.46051 12.8583 3.22874)
(2.54757 1.1679 0.748395)
(0.12355 3.02037 1.50754)
(-0.181381 1.96849 2.01313)
(1.17599 8.76958 -0.0318091)
(-0.0230492 0.0215627 -0.0464653)
(-0.059469 0.0624853 -0.126733)
(0.0311216 0.00338822 -0.111481)
(-0.213131 0.0697927 -0.288004)
(9.5833e-05 0.000144388 -0.000429613)
(13.1085 -1.61534 -0.427769)
(1.97675e-06 6.20589e-06 -1.28072e-05)
(-0.626635 0.0615883 -0.0797418)
(0.0420474 -0.0406849 -0.25086)
(-0.0274822 -0.0369681 -0.47753)
(2.10144e-08 -1.11168e-08 -5.16461e-08)
(-13.2114 1.12769 -8.07558)
(0.000271788 -0.00168188 -0.00277496)
(14.3323 -6.95161 3.00215)
(-14.5871 1.60908 -1.98046)
(-0.0533451 -0.00977638 -0.38555)
(0.255192 5.92826 0.889624)
(0.00223651 -0.0384679 -0.375479)
(0.194963 1.4968 1.72011)
(0.0375584 -0.0392611 -0.164243)
(-1.85076e-09 4.21727e-09 -9.42918e-09)
(0.0783592 -0.033049 -0.163626)
(-0.079418 -0.08046 -0.267776)
(2.75103 4.1423 2.948)
(1.46986e-08 1.09626e-08 -6.76216e-08)
(1.49622e-06 5.18968e-07 -3.53045e-06)
(0.023155 -0.064902 -0.0944687)
(-0.196732 13.7936 1.39818)
(0.0470874 -0.00777261 -0.118174)
(-0.0182181 0.0200325 -0.193457)
(0.0431611 -0.117702 -0.0964591)
(-0.0218322 -0.0754217 -0.355895)
(-0.016625 -0.00804795 -0.0325513)
(-0.524241 13.6411 0.843358)
(-0.849388 13.8001 -0.0842339)
(-5.75879e-06 -5.553e-07 -1.72774e-05)
(-7.53632e-13 2.78837e-13 -1.83617e-12)
(0.00184688 -0.1496 -0.392417)
(-0.0353037 -0.349496 -0.0640743)
(-0.902449 13.4389 1.70915)
(-1.7441e-12 1.18149e-12 -7.39045e-12)
(-0.231258 -0.0582828 -0.263864)
(0.00742227 -0.0529796 -0.348894)
(-5.49791e-10 -2.18587e-11 -1.41169e-09)
(0.36494 8.88114 -1.13022)
(0.0105859 -0.100573 -0.267723)
(-0.151117 -0.157011 0.0182738)
(-3.55154 12.957 4.64886)
(-6.85083e-13 1.98681e-12 -5.5492e-13)
(-0.00342814 0.000250156 -0.0122654)
(0.875003 4.09612 -1.05413)
(0.0700494 0.0297008 0.0729193)
(-0.144122 0.0738388 -0.31379)
(-0.0597995 9.84327 -1.91735)
(2.56027e-11 -6.21001e-11 -1.19316e-10)
(-1.80098e-05 7.46284e-06 -8.43594e-05)
(-1.63994e-12 1.27328e-13 -5.32329e-13)
(0.300033 1.39382 1.59018)
(-0.0467377 0.0350922 -0.435805)
(2.45018e-12 4.08168e-12 -9.6e-12)
(-5.4691e-13 -4.86573e-13 -1.48226e-12)
(-0.0744591 -0.124371 -0.255767)
(-0.00308187 0.0674133 -0.210923)
(-0.173817 -0.171796 -0.240866)
(1.22447e-09 3.29286e-10 -1.20502e-08)
(-0.00349469 0.169403 -0.266677)
(-8.1022e-12 -1.23793e-11 -4.09537e-11)
(-0.136401 0.0484162 -0.0935484)
(-0.916065 9.62375 0.531093)
(-0.00307468 -0.00757816 -0.0179412)
(0.0943481 0.147384 -0.115328)
(-2.10106 6.78179 1.93459)
(-0.0537894 0.084914 -0.23385)
(-4.40675e-13 -1.06122e-12 -1.30643e-12)
(-0.000818309 0.0509544 -0.311235)
(-1.32555 12.7805 0.959444)
(-1.14337 9.73981 -0.156161)
(-4.58883 19.1087 -5.90103)
(0.163077 0.042777 -0.0341914)
(-11.752 -2.28259 -0.163506)
(-6.49506e-05 0.000578302 -0.00373297)
(-16.9464 -5.21797 0.967324)
(0.796665 -0.151423 0.0641274)
(-16.2545 -0.22301 1.39926)
(6.61897e-11 1.90203e-10 -5.13943e-10)
(-0.0339576 0.0523709 -0.307652)
(1.3429e-12 2.51293e-14 -1.52324e-12)
(-3.45417e-09 5.82185e-09 -8.56147e-09)
(5.6784e-10 -3.10094e-09 -9.68688e-09)
(-16.0773 -1.72484 -0.495436)
(8.56505e-12 -8.26807e-12 -3.32154e-11)
(0.122685 0.0704546 -0.303404)
(-1.44814e-06 -1.03794e-07 -8.69866e-06)
(0.026549 -0.0681245 -0.0960222)
(-2.60375e-10 -6.14733e-11 -7.40724e-10)
(0.0878823 -0.0827991 -0.0563454)
(-0.0893919 0.00134599 -0.241143)
(0.079281 0.0164688 -0.271443)
(-15.8624 -1.10922 -0.968659)
(0.000266143 0.000195792 -0.000390241)
(-0.15431 -0.070961 -0.289176)
(1.30264e-06 -2.82424e-07 -6.28256e-06)
(0.198376 -16.208 1.20757)
(-16.1404 0.756339 -1.68759)
(-0.35058 0.641998 -0.594274)
(-0.0700985 0.139782 -0.284827)
(-13.3636 3.06062 -1.33797)
(-0.0315035 -0.0541174 -0.221644)
(-3.41959e-06 1.66832e-07 -3.64149e-06)
(0.0100152 -0.15803 -0.147729)
(-11.7262 -0.899499 1.14591)
(3.56522e-10 1.14607e-10 -1.09e-09)
(-0.00367984 0.000262931 -0.00965181)
(-0.0696131 0.0539854 -0.22854)
(-0.000131317 -0.000563713 -0.00385197)
(-19.5809 -0.770568 -0.774814)
(-4.12171e-06 -1.7237e-05 -5.12962e-05)
(-1.96959e-07 9.40241e-08 -7.52121e-07)
(8.43155e-07 1.18284e-07 -1.35506e-06)
(-0.0145523 0.0636012 -0.257826)
(0.15812 -0.0398921 0.162671)
(1.15969e-06 -1.34829e-06 -3.05038e-06)
(-1.95662e-13 -3.23053e-13 -1.3218e-12)
(-20.2598 -0.981897 -1.78639)
(-15.634 -2.87991 -1.06498)
(-0.306758 0.132913 -0.334935)
(0.0667811 0.177291 -0.325641)
(0.0858453 -0.108041 -0.364962)
(-0.000637904 0.000310378 -0.00124619)
(0.0305825 -0.0218621 0.0183287)
(6.51441e-05 0.000172227 -0.000246291)
(4.05298e-13 1.1171e-12 5.33415e-13)
(0.0162749 0.0832298 -0.428838)
(-1.55551e-07 1.28473e-06 -6.64633e-06)
(-0.00281022 -0.00508219 -0.0243536)
(8.93406 -0.193112 -0.83205)
(14.992 0.915956 -3.19961)
(-3.46049e-13 1.08645e-12 -8.20947e-13)
(0.0328621 -0.00230216 -0.102951)
(7.37459 0.755548 -0.738488)
(0.0460277 -0.098276 -0.211795)
(0.431387 0.0237139 0.297004)
(0.0249984 0.0112984 -0.23319)
(-1.53928e-10 6.72588e-11 -1.55853e-09)
(0.0425493 -0.149532 -0.258047)
(-0.0111502 -0.0595232 -0.168301)
(0.413491 0.226926 -0.182105)
(-0.0838065 0.23529 -0.348203)
(6.3691 0.25839 -1.91021)
(0.000526663 -0.000574555 -0.00663275)
(13.7119 -1.25737 -1.7713)
(-0.0105647 0.0629136 -0.209621)
(0.00295616 -0.000797028 -0.0040837)
(8.25394 -1.61554 1.24374)
(13.4693 0.860186 -2.46522)
(-0.902327 0.191323 1.03943)
(0.570015 0.569012 -0.146753)
(-1.59729e-13 -1.42207e-13 6.45743e-13)
(-0.0285821 0.0255438 -0.174388)
(2.65789e-09 -7.63e-10 -5.02531e-08)
(-0.000159171 0.000335791 -0.0161456)
(10.338 0.085641 -1.41223)
(-0.27376 3.71266 1.13148)
(11.0029 1.04574 -1.12767)
(12.5748 -1.36667 -1.26465)
(-0.181153 -0.0292924 -0.0510275)
(0.256425 0.0699962 0.491122)
(12.4943 1.44953 -2.42067)
(-0.0204547 0.0704017 -0.257332)
(-11.4678 -2.39143 2.08952)
(0.0260051 0.0769124 -0.360946)
(0.114343 -0.064146 -0.0481863)
(-0.000365928 -0.0523476 -0.309832)
(-0.637148 3.12241 0.981597)
(-1.69953e-12 1.57863e-13 1.06733e-12)
(-0.0678289 0.0594431 0.0865627)
(0.0484136 0.0445222 -0.162589)
(0.0287909 -0.0203972 -0.394483)
(0.19484 -0.114043 -0.153144)
(2.11101e-05 -3.34391e-05 -7.3481e-05)
(-0.130853 -0.0370546 -0.1656)
(7.00215e-09 -2.09153e-09 -1.27257e-08)
(9.79433e-10 3.01246e-09 -8.93811e-09)
(-0.137605 0.100618 0.0802106)
(-2.65494e-11 7.01516e-11 -2.31374e-10)
(-0.264793 0.201538 -0.229205)
(-1.26042e-10 2.15627e-10 -2.97471e-10)
(0.0770105 0.0914063 -0.0904199)
(0.0958086 0.111969 -0.347893)
(0.186479 0.00791156 -0.205054)
(0.113636 0.137026 -0.0488968)
(0.0787896 -0.151356 -0.586028)
(0.00477979 0.00855907 -0.0174373)
(-0.0429325 0.145532 -0.200847)
(-0.226202 -0.0300557 -0.361983)
(-0.116644 0.037405 -0.119857)
(0.0563823 0.3402 -0.0225506)
(7.60554e-09 8.71403e-09 -2.44458e-08)
(0.101086 -0.262987 -0.439437)
(0.0629818 -0.0256049 -0.00464278)
(0.0259891 0.0750113 -0.217577)
(0.0203368 -0.0384026 0.0382783)
(0.0776692 0.1101 -0.295489)
(-0.064374 0.111247 0.205998)
(-1.69958e-12 8.65628e-13 8.66488e-13)
(0.0974851 -0.0334978 0.0268315)
(-0.00193928 0.000670916 -0.0168954)
(3.504e-10 1.50011e-10 -7.01385e-10)
(0.000792567 -0.000144175 -0.00184144)
(-0.0292551 0.121974 -0.0345011)
(0.29659 0.0618623 -0.196396)
(-0.000359297 -0.00128873 -0.00130129)
(0.0638184 0.00750473 0.00348741)
(-0.01477 -0.243778 -0.224601)
(-0.117918 0.0329137 -0.23578)
(-1.74885 17.6177 0.595941)
(-4.60394e-13 4.29512e-14 1.27673e-12)
(-0.190898 0.0767076 -0.0896102)
(0.0230928 0.0943228 -0.418074)
(4.32235e-09 8.87412e-09 -1.33521e-08)
(-8.68137e-09 1.72452e-09 -1.6777e-08)
(0.456066 0.316939 -0.205132)
(0.0391592 0.020028 -0.0574895)
(0.00535565 0.0344874 0.0128187)
(0.0565696 0.113487 -0.209355)
(1.78007e-10 1.24777e-10 -2.92846e-10)
(-0.0810926 0.115334 -0.235037)
(-0.131689 -0.0508254 -0.192138)
(0.0734731 0.0769984 -0.123241)
(-0.118801 -0.0393205 -0.0463361)
(0.0191241 -0.206115 -0.161717)
(0.0198187 -0.171612 -0.0651514)
(-0.0201502 -0.00405533 -0.0349165)
(3.7015e-11 1.08765e-10 -3.30866e-10)
(1.24523 8.4343 0.882092)
(1.36098 7.49431 0.761151)
(0.0582259 -0.0192876 -0.103539)
(0.12207 -0.132934 0.0981343)
(6.56262e-10 2.49726e-10 -7.39129e-10)
(0.00844771 -0.100681 -0.334513)
(3.64567e-09 -2.40368e-09 -1.01907e-08)
(-0.118391 0.0479543 -0.336127)
(0.0659486 -0.0781766 -0.379823)
(0.00977519 0.254808 0.102118)
(-0.0479154 -0.172785 0.0464563)
(12.6735 2.9303 4.08482)
(7.06398e-05 0.000453201 -0.00133015)
(0.136207 -0.539498 -0.612652)
(3.61738e-13 1.09233e-12 -2.81936e-12)
(-0.0414637 0.255773 -0.117543)
(-0.0345711 0.012087 -0.0391363)
(0.144324 0.0483936 0.284698)
(7.14324e-05 -0.000115183 -0.000420543)
(-0.0546393 0.0858012 -0.0935744)
(0.0214319 0.159204 -0.0205937)
(0.071636 0.0564713 -0.153252)
(-0.0866989 -0.0190911 -0.281125)
(0.00223203 -0.0378897 -0.152988)
(-0.077231 -0.0213325 -0.0437168)
(-0.0576316 -0.0255132 -0.0806043)
(6.75185e-07 4.15485e-05 -9.39487e-05)
(0.0186334 -0.12338 -0.393052)
(-0.0855226 -0.0698706 -0.0787907)
(-0.0135434 0.0144145 -0.218296)
(-0.122973 -0.0566585 -0.116773)
(-0.105087 0.114788 -0.356939)
(-0.0436244 -0.010162 -0.28385)
(13.6395 -3.13733 0.0951082)
(0.0912976 0.0169589 0.231846)
(0.00271657 -0.0786829 -0.0783684)
(0.760634 10.7929 -2.93147)
(-8.57489e-15 3.93108e-13 -2.90437e-12)
(-0.180054 -0.0783635 -0.111357)
(-0.094774 -0.171114 -0.121777)
(0.0193305 0.0921284 -0.223416)
(-0.0204506 -0.0770223 -0.193387)
(1.95881e-05 0.000240502 -0.00138187)
(0.00988085 0.116106 -0.13486)
(0.0585771 0.169205 -0.0562918)
(0.0876118 0.170219 -0.102686)
(0.0278131 -0.057938 -0.314289)
(-0.00676756 -0.00506218 -0.022152)
(0.177158 0.174382 -0.095329)
(0.131899 0.00693314 -0.0571793)
(0.0910341 -0.187043 -0.114491)
(-0.0655701 -0.0352873 -0.284834)
(0.186904 -0.0960696 -0.489154)
(1.07377 0.100359 -0.788139)
(0.0913698 -0.0933137 -0.0426597)
(-0.123744 -0.0327028 -0.107522)
(-0.00334012 0.0177623 -0.139962)
(-2.43437 0.525515 -1.47524)
(0.048468 -0.0359612 -0.227656)
(-0.111665 -0.117346 -0.118074)
(0.000514983 0.000278669 -0.00161656)
(0.0554282 -0.0236188 -0.375799)
(0.106576 -0.20298 -0.233272)
(0.0336339 0.00701113 -0.0791399)
(0.0712049 0.00844045 -0.351525)
(0.0706126 -0.0168241 -0.222702)
(5.31047e-14 -1.58124e-12 -5.63976e-13)
(0.00411707 0.0320224 -0.116109)
(0.0513292 0.10521 -0.236035)
(-2.78747e-12 -5.72641e-13 -9.85052e-13)
(0.00245056 0.00613635 -0.0523099)
(-0.113117 0.316034 0.00500187)
(0.100209 -0.0854908 -0.293599)
(-3.91143e-07 1.93589e-07 -7.28949e-07)
(-1.86759 14.6899 9.74227)
(0.0826038 -0.104856 -0.348049)
(13.8722 -0.314279 0.0222031)
(-0.0152936 -0.0187834 -0.221123)
(0.13275 -0.146058 -0.199096)
(-0.000850529 0.0610675 -0.246739)
(-0.0565676 0.280114 0.0500595)
(0.00126716 -0.0142313 0.119043)
(-0.2966 0.168782 -0.0641533)
(2.59454e-08 -4.24431e-08 -1.07396e-07)
(6.45627e-10 2.30346e-10 -3.78098e-09)
(-0.00700942 0.00434895 -0.177718)
(0.465776 -10.6161 -2.00948)
(-8.82663e-13 -3.91234e-13 -6.09698e-13)
(0.0575089 0.0116006 -0.187641)
(-2.26098e-12 -1.26869e-12 1.3141e-12)
(-4.54546e-13 1.11683e-12 -1.36455e-12)
(0.0493425 -0.0267281 -0.15512)
(-0.0172896 0.0325278 -0.251445)
(-16.2521 -1.29952 -5.00377)
(-0.129517 -0.156445 -0.204748)
(-0.1967 -0.00356105 -0.0989963)
(-2.05499e-07 -3.1828e-07 -9.86749e-07)
(0.178872 -7.18086 0.733404)
(0.176063 -0.0564239 -0.237407)
(0.0864505 0.0717956 -0.165413)
(-1.19359 -5.75956 0.9407)
(0.248523 -0.0638971 -0.153202)
(-0.0545632 0.0396508 -0.326371)
(0.160106 -0.191679 -0.000688681)