/*--------------------------------*- C++ -*----------------------------------*\
| =========                 |                                                 |
| \\      /  F ield         | OpenFOAM: The Open Source CFD Toolbox           |
|  \\    /   O peration     | Version:  2312                                  |
|   \\  /    A nd           | Website:  www.openfoam.com                      |
|    \\/     M anipulation  |                                                 |
\*---------------------------------------------------------------------------*/
FoamFile
{
    version     2.0;
    format      ascii;
    arch        "LSB;label=32;scalar=64";
    class       volScalarField;
    location    "0.1";
    object      epsilon;
}
// * * * * * * * * * * * * * * * * * * * * * * * * * * * * * * * * * * * * * //

dimensions      [0 2 -3 0 0 0 0];

internalField   nonuniform List<scalar> 
32842
(
0.676719
0.675254
0.676719
0.676719
0.687516
0.676719
4199
4822.03
0.676719
0.676719
8362.99
4759.03
0.676719
0.676719
0.676769
0.676704
0.676719
0.676719
0.676719
0.687194
0.688804
0.688058
0.686893
0.676719
0.686495
0.676719
0.676719
0.683633
0.241889
0.676719
0.298674
0.17969
546.273
0.676719
1188.55
11480.4
0.686637
0.676719
0.676719
0.676719
0.676719
0.688635
0.676719
0.676719
0.24777
0.676719
1.18135
0.676719
0.688152
1.21948
2294.69
0.676719
0.146327
1.04531
0.676719
0.669957
0.676719
1.16299
0.676719
0.676719
6143.36
0.151664
0.136242
0.688647
0.676719
0.662376
0.676719
0.125424
0.194905
0.676014
0.68312
0.784818
0.171586
0.676719
0.676719
0.676719
0.0774734
0.676719
0.172395
1.10866
0.687388
0.676719
0.676719
0.15573
0.112611
0.676719
0.676719
0.675092
0.599778
0.676719
0.687548
0.688176
0.681986
0.676719
0.676719
0.676719
0.177018
0.676741
0.120483
0.676719
0.676719
0.689711
0.674176
1.03303
0.173047
0.188276
0.338795
0.675001
0.161151
0.675692
0.676719
0.676719
0.68861
0.676719
0.674389
0.688338
0.158841
0.632116
0.675418
0.676719
0.676719
0.676719
0.782688
0.676719
0.674842
0.174256
0.213336
0.676719
0.670997
0.676719
0.676719
0.672792
0.690072
0.171967
0.688986
0.676675
0.671986
1.2306
0.676719
0.676719
0.161443
0.676719
0.16297
0.674926
0.676719
0.676719
47.1047
0.676719
0.676719
0.676719
0.674554
0.462785
0.685367
0.700222
0.676591
0.676719
0.676719
0.676719
0.676719
0.676719
0.676719
0.676719
0.686589
0.676719
0.676386
0.676719
0.676719
0.676719
0.676719
32.6686
0.675102
0.688391
0.679218
0.676719
0.688964
0.275874
0.676719
0.674809
0.676719
0.676719
0.681629
0.676719
0.676719
0.676719
0.15793
0.676719
0.169873
0.676719
0.676719
0.676719
0.676719
0.627465
0.198433
0.676719
0.191332
0.676719
0.676719
0.676719
0.177331
0.676719
0.676719
0.676719
0.727894
0.728609
0.649242
0.69245
0.676719
0.688789
0.188601
0.676719
0.676719
0.67668
0.729404
0.75369
0.676719
0.676719
0.676719
0.676719
0.676719
0.676679
0.579053
0.676719
0.676719
0.676719
0.68962
0.2233
0.676719
0.184135
0.676719
0.660855
0.676719
0.676719
0.676719
0.676719
0.78984
0.687391
0.687735
0.673021
0.676719
0.152029
0.778981
0.676719
0.676719
0.774602
0.676719
0.676719
0.143569
0.676719
0.676719
0.676719
0.676719
0.676719
0.676608
0.177653
0.676719
0.676719
0.676719
0.674789
0.676719
0.676719
0.676719
0.676719
0.676719
0.676719
0.230419
0.676719
0.676719
0.676719
0.676719
0.676719
0.676719
0.177565
0.676719
0.225975
0.676719
1.0149
0.676719
0.688277
0.676719
0.676719
0.676719
0.674917
0.692656
0.676719
0.676719
0.675199
0.66951
0.676719
0.688746
0.676719
171.806
0.676719
0.195598
0.717348
0.0760348
0.675211
0.196896
0.676719
0.676719
0.686387
1.58835
0.676719
0.676719
0.676719
0.676719
0.676719
0.676719
0.676719
0.676719
0.150171
0.676719
0.676719
0.153262
0.676719
0.676719
0.676719
0.676719
8.00322
0.676719
0.676719
0.676719
0.735843
0.676719
0.680529
0.676719
0.676719
0.676719
0.676719
0.676719
0.676719
0.676719
0.170063
0.676719
0.676719
0.676719
0.676719
0.0918936
0.194492
0.676719
0.676719
0.676719
0.676719
0.672961
0.676719
0.150627
0.676719
0.676719
0.184768
0.131246
0.163847
0.676718
0.66988
0.676719
0.177592
0.676719
0.676719
0.686724
0.676719
0.676719
0.676719
0.676719
0.676719
0.676719
1.37329
0.676719
0.676732
0.676719
0.676719
0.672726
0.686054
0.676719
44.1514
0.676719
0.68754
0.676719
0.160828
0.687652
0.676719
0.67359
0.686677
0.676719
0.148295
0.174127
0.676719
0.676719
0.676719
0.676719
0.676719
0.676719
0.676719
0.676719
0.676719
0.676719
0.676719
0.676718
0.676719
0.676719
0.676719
0.676719
0.676421
0.976977
0.676719
0.676719
0.675831
0.759406
0.67669
0.676719
0.689382
0.676719
0.686679
0.21438
0.676719
0.676719
0.676719
0.676719
0.676719
0.676719
0.676719
0.676718
36356.7
0.676717
0.17125
0.676719
0.688876
0.0966888
0.676719
0.676719
0.676719
0.676572
0.676719
0.676719
0.676719
0.676719
0.169762
0.687274
0.0891484
0.676719
888.676
0.69685
0.16035
0.688702
1.16193
0.686859
0.157587
0.676719
0.676719
0.681656
0.676719
0.685723
0.673606
0.676719
0.676719
0.676719
0.764304
0.685096
0.676719
0.676719
0.687862
0.676699
0.676719
0.676726
0.6894
0.676719
0.676719
0.676719
0.676658
0.676719
0.156318
0.676719
0.674629
0.676719
0.689582
0.687605
0.676719
0.676719
0.155597
0.166887
0.676719
0.676719
0.676719
0.676719
0.687436
0.676719
1.03317
0.155937
0.676719
0.676719
0.122668
0.675368
0.676719
0.686935
0.673962
0.681951
0.676496
0.163378
0.688877
0.202771
0.154838
0.672337
0.676719
0.688179
0.698553
0.676586
0.165322
0.687712
0.120945
0.685204
0.676719
0.675747
0.687639
0.676719
0.171236
0.676719
0.173902
0.676719
0.676719
0.687406
0.68847
0.676393
6435.4
0.72617
0.747877
0.6809
0.679136
0.68927
0.160658
0.676719
0.676719
0.676719
0.156118
0.18435
0.134545
0.724237
0.676713
0.676719
0.685319
0.246121
0.676719
7901.97
0.59258
0.676715
1.95733
0.675912
0.677087
0.676719
0.676719
0.676717
0.16304
2.64215
0.676719
0.689666
0.676719
0.0904138
0.195295
0.676719
0.676719
0.676719
0.676719
1.15391
0.869352
0.676719
0.676719
0.676682
0.176192
1.3675
0.125152
0.676719
0.676719
0.676719
1.23686
0.154124
0.203442
0.219428
0.198345
0.676719
0.6676
0.197848
0.676719
0.890164
0.676719
0.687523
0.676719
0.672546
0.68775
0.686692
0.676719
0.676719
0.676719
0.676719
0.154453
0.68908
0.676719
0.676719
1.05667
0.676719
0.690851
0.253034
0.130982
0.676737
0.676719
0.78184
0.303201
1182.48
0.676719
0.708252
0.10876
0.708074
0.674251
0.842598
0.676719
0.676719
0.676719
0.676719
0.676719
1.22862
0.687821
0.676719
0.676719
0.676719
0.676719
0.676719
0.676719
0.676715
1.26584
0.126188
0.676718
0.676719
0.369633
1.13664
0.938031
0.676719
0.415394
0.676719
0.676719
0.676719
0.666517
0.172028
0.676719
0.687142
0.676719
0.316368
0.676719
0.676719
0.676719
0.676719
0.297942
0.676719
0.676719
0.833015
0.998753
0.676714
0.676719
0.676719
0.195122
0.111602
0.676719
0.169135
0.687208
0.676719
0.676719
0.905151
0.667707
0.676719
0.122236
0.751328
0.676712
0.673146
0.676719
0.676719
0.688271
0.68762
0.676389
0.67658
1.45001
0.676719
0.675397
0.676719
0.676719
0.288339
0.690818
0.772451
0.752285
0.676719
0.676719
0.685951
0.686944
0.928053
0.70287
0.751898
0.783635
0.676359
0.674324
0.677622
0.676719
1.0541
0.676719
0.676719
0.140935
0.571942
0.676723
0.676719
0.676719
0.676719
0.676719
0.676719
0.676719
0.676719
0.676719
0.150343
0.676719
0.676719
0.676719
0.0964582
0.676719
0.676719
0.676719
0.19584
0.676719
0.676719
0.676719
0.676719
0.676719
0.676719
0.676423
0.676719
0.676719
0.676719
0.676719
0.681378
0.676728
0.688092
0.681263
0.689318
0.676719
0.687851
0.687873
0.202913
0.676719
0.676719
0.685426
0.981984
0.676719
0.220794
0.686818
0.676719
0.676719
0.673662
0.676719
0.676719
0.146868
0.676719
0.676719
0.676719
0.688728
0.174286
0.676719
0.687039
0.676719
0.685802
0.926981
0.716781
0.686205
0.676719
0.131838
0.676719
0.676719
0.676719
0.676719
0.676719
0.676719
0.497109
0.676719
0.675725
0.145749
0.687031
0.676719
0.675938
0.676719
0.132228
0.689783
0.161554
0.676718
0.199606
0.218173
0.6878
0.676719
0.685294
0.676719
0.689594
0.676719
0.676719
0.688423
885.816
0.178412
0.676719
0.660794
0.676722
0.210169
0.676716
0.676719
0.676719
0.676719
0.676719
0.676719
0.676719
0.676719
0.676719
0.676719
0.676719
0.676719
0.178153
0.6767
0.533681
0.676719
0.676719
0.687611
0.734794
0.676719
0.676719
0.688586
0.676719
0.675356
0.676719
0.689801
0.134121
0.676719
0.676719
0.676719
0.676726
0.676719
0.67619
0.676719
0.676719
48.9953
0.676719
1.34457
0.676719
0.676719
0.676588
0.676445
0.686107
0.676719
0.676719
0.676719
0.676719
0.609622
0.676719
0.676719
0.163799
0.676731
0.174712
0.676719
0.666615
0.676719
0.676719
0.130255
0.671263
0.676719
0.676719
0.679274
0.6852
0.676719
0.676719
0.676719
0.676719
0.676719
0.176949
0.275699
0.170779
0.676719
0.159641
0.676719
0.676719
0.676719
0.675624
0.681454
0.676719
0.676719
0.676719
0.676719
0.675857
0.676719
0.676719
0.676719
0.676704
0.70452
0.687249
0.676719
0.60411
0.120079
0.676719
0.674893
0.328825
0.676719
0.676719
0.676719
0.224359
0.676719
0.676719
0.182041
0.688089
0.676719
0.676719
0.676719
0.676719
0.681342
0.604502
0.676719
0.676719
0.206151
0.676719
0.676719
0.292363
0.676719
0.676719
0.676719
0.676719
0.178933
0.676719
0.676719
0.676719
0.676719
0.686371
0.676719
0.206387
0.687566
0.667198
0.676719
0.676719
0.676719
0.676719
0.676719
0.676719
0.65452
0.176485
0.684916
0.69752
0.676719
0.686167
0.676719
0.676719
0.676719
0.676719
0.676719
0.676719
0.676719
0.676719
0.676719
0.676719
2.11002
0.676719
0.12677
0.676719
0.151229
0.155975
0.676719
0.686617
0.153717
0.981127
0.732666
0.686072
0.676719
0.676719
0.676719
0.676719
1.33031
0.676719
0.193422
0.915914
0.836426
0.894563
0.681466
0.665778
0.676719
0.674047
10053.4
0.676719
0.471697
0.671838
0.676718
0.676719
0.676719
0.7033
0.676719
0.166171
0.687923
0.656134
0.232649
0.147676
0.686766
0.676719
0.676719
0.676719
0.676719
0.676719
0.676719
0.676719
0.676719
0.747311
0.689456
0.676719
1.93465
0.676719
0.676719
0.676336
0.676719
1.18359
0.505487
0.676719
0.676719
0.676719
0.168387
0.775389
0.676719
0.671699
0.159281
2.40713
0.676714
0.676706
1.32999
0.149855
0.676719
0.676719
0.676719
0.676679
0.674978
0.676563
0.222888
0.676719
0.676719
0.676719
0.676719
0.676516
0.716384
0.676719
0.676719
1.25677
0.665051
0.184662
0.676719
0.679214
0.636993
0.676719
0.676719
0.676719
0.129262
0.670961
0.676719
0.684103
0.692412
0.676719
0.676436
0.670354
0.676718
0.676719
0.676719
0.676719
0.656233
0.676702
0.676533
0.674238
0.870889
0.682255
0.680607
0.66909
0.676719
0.701363
0.232774
0.676719
0.13578
0.285286
0.682613
0.671678
0.684204
0.67189
0.676719
0.134204
0.183197
0.675007
0.676719
0.676719
0.676719
0.676719
0.676719
0.676684
0.676718
0.256678
0.676719
0.676719
0.698261
0.676719
0.676723
1.00117
0.717574
0.675705
0.674948
0.676719
0.346286
0.670514
0.181684
0.676687
0.676719
0.67634
1.26109
0.744011
0.686692
0.674716
22.5479
0.676719
0.73789
0.674483
0.676719
0.432971
0.691138
0.676706
0.734264
0.676719
0.676719
0.429331
0.825808
0.674024
0.676719
0.676719
0.676719
0.676719
0.674477
0.67378
0.672238
0.676719
0.676719
0.68289
0.676719
0.676719
0.569481
0.676719
0.673946
0.667744
0.676719
0.676719
0.671501
0.691214
0.672844
0.820481
0.676719
0.680742
0.482723
0.692437
0.686134
0.673791
0.141362
0.676719
0.676719
0.67594
0.128172
0.686528
0.676719
0.887318
0.187185
0.67317
1.36443
0.676719
1.16351
0.345271
0.669814
0.676719
0.676719
0.670615
0.676719
0.676719
0.143251
0.674612
0.666885
0.670916
0.688033
0.680678
0.676719
0.676719
0.671811
0.342962
0.676719
0.675218
0.676719
0.323274
0.676714
0.261068
1.59618
0.674321
0.0798553
0.114785
0.757006
0.671837
0.672451
0.192722
0.675355
0.155373
0.674591
0.671491
0.684753
0.676719
0.671016
0.676717
0.674904
0.686575
0.671957
0.178164
0.672121
0.686935
0.147183
2.84345
0.676719
0.684813
0.688039
0.146485
0.11809
0.676716
0.673249
0.0833036
0.699317
0.688295
0.676719
0.147761
0.676719
0.685253
28754.3
0.686839
0.676719
0.18295
1.20018
0.676719
0.686337
0.676719
0.676719
0.676719
0.676719
0.553855
0.686252
0.676719
0.259925
0.229373
0.676707
0.675898
1.52288
0.676719
0.676719
0.676374
0.686408
0.67236
0.676719
0.677729
0.676719
0.0648459
0.086487
0.673614
0.177634
0.328176
0.704598
0.693698
0.67514
0.251039
0.669159
0.831649
0.839246
0.665926
0.688828
0.679313
0.676719
0.677072
0.676737
0.184619
0.676719
0.675816
0.676719
0.688372
0.680807
0.392787
0.725831
0.688273
0.676719
0.729714
0.194764
0.676719
0.676719
0.196386
1.21422
0.676719
0.139018
0.676713
0.671209
0.674724
0.138243
0.676557
0.676719
0.675574
1.29142
0.687409
0.67641
0.686312
0.676719
0.676672
0.81248
0.676719
0.171539
0.193468
0.676504
0.81348
0.676719
0.205585
2.82607
0.676719
0.691151
1.38801
0.676719
0.676719
0.67668
0.146532
0.676719
0.67404
0.676719
0.689831
0.674121
0.674864
0.675782
0.676719
0.676719
0.676719
0.676719
0.676719
0.676629
0.676719
0.676719
0.690516
0.675937
0.676719
0.656494
0.673778
0.676719
0.676719
0.674922
0.676719
0.689013
0.689738
0.676719
0.676349
0.674846
0.673671
1.00354
0.821703
0.689052
0.210549
0.666589
0.676719
0.676719
0.684036
0.700024
0.68776
0.137297
0.676361
0.676719
13.0276
0.687937
1.2736
0.686177
0.690816
0.684837
0.676719
0.70813
0.676719
0.676719
0.686752
0.695827
0.173086
0.229659
0.709918
0.686902
0.686049
0.692581
0.676719
0.70085
0.680746
0.686479
1.04929
0.676719
0.818331
0.676719
0.672628
0.676719
0.680272
0.676719
0.689757
0.676719
0.676719
0.688293
0.674491
0.40331
0.673852
0.676719
0.676719
0.672857
0.676719
0.676719
0.183313
0.676719
0.686981
0.676719
0.676719
0.676715
0.676718
0.676719
0.676719
0.699831
0.676719
0.683487
0.403758
0.675757
0.676719
0.676707
0.676719
0.676719
0.676719
0.680187
0.676719
0.676719
0.676719
0.687679
0.221255
0.676719
0.676719
0.676719
0.557983
0.676719
0.676718
0.676717
0.676719
0.676719
0.1505
0.676719
0.676719
0.676719
2.24146
0.676711
0.676694
0.676719
0.1523
0.674554
0.674584
0.671768
0.676719
0.673629
0.676719
0.673964
0.676719
0.676718
0.676661
0.717018
0.678802
0.676682
0.731664
0.680556
0.688978
0.676719
0.666495
0.672733
0.686082
0.676695
0.666493
0.676824
0.676719
0.676719
0.676627
0.676719
0.677124
0.698377
0.676719
0.676719
0.676708
0.676706
0.675017
0.352389
0.676719
0.959121
0.687934
0.676719
0.674313
0.4149
0.673841
0.673665
0.676719
0.676667
0.186598
0.676719
0.685143
0.676719
0.674573
0.676719
0.142348
0.686499
0.676719
0.676719
0.676719
0.676719
0.673678
0.676719
0.669932
0.676719
0.67118
0.670446
0.687707
0.676719
0.0767881
0.138407
0.676719
1.35553
0.937091
0.686765
0.676431
0.676719
0.159489
0.674978
1.25312
0.966179
0.676719
0.676719
0.692244
0.676719
0.673017
0.676719
0.676719
0.688445
0.709435
0.676719
0.676719
0.93688
0.676719
0.676719
0.676719
0.676719
0.32378
0.149203
0.780738
0.676719
0.676719
0.676719
0.676149
0.671759
0.331083
0.973519
0.688149
0.676719
0.676719
0.676719
0.676719
0.7051
0.678878
0.676719
0.676719
0.676719
0.676719
0.178911
0.676719
0.16099
0.676719
0.153713
0.688561
0.673517
0.676719
0.676719
0.676719
0.676719
0.676719
0.676719
0.676719
0.185689
0.676719
0.672316
0.396352
0.673721
0.676719
0.676719
0.676719
0.676719
0.674293
0.66826
0.676719
0.676719
0.676719
0.146208
0.671785
0.788897
0.655603
0.686314
0.169001
0.686514
1.4904
0.676661
0.190438
0.676719
0.676719
0.688637
0.525829
0.976246
0.690868
0.676289
0.169466
6.21999
0.676719
0.676719
0.67378
0.676719
0.676719
0.676719
0.685896
0.831734
0.676719
0.685925
1.66843
0.676719
0.676719
0.676719
0.676719
0.676719
0.676719
0.676719
0.688694
0.675516
0.67495
0.672605
1.58775
0.675329
0.672064
0.159183
0.676735
0.687955
0.672044
0.672774
0.688069
0.689304
0.672124
0.129352
0.675414
0.674051
0.676719
0.676719
0.672019
0.676701
0.67671
0.676719
0.676719
0.688132
0.676719
0.676614
0.67673
0.676719
0.676705
0.676639
0.676707
0.676024
0.141234
0.676719
0.6716
0.676719
0.676573
0.676719
0.676719
8.86634
0.675832
0.676459
0.211059
0.673237
0.676719
0.676719
0.672364
0.696719
0.740571
0.672859
0.676719
0.666718
0.676719
0.676718
0.676719
0.915325
0.676719
0.676719
0.676719
0.659233
0.68601
0.676719
0.68821
0.676719
0.13913
0.686414
0.676717
0.672329
0.676719
0.676719
0.676714
0.676719
0.676719
0.676719
0.689242
0.676719
0.676719
0.673948
0.138706
0.669479
0.676719
0.674156
0.690786
0.674502
1.13399
0.192727
1.00249
0.674307
0.674693
0.689096
0.676719
0.673587
0.676719
1.03772
0.217389
0.688636
0.174128
0.120439
0.676719
0.676719
0.110189
0.676719
0.676719
0.995302
0.686537
0.676719
0.676719
0.675132
0.676719
0.676719
0.676719
0.676719
0.676719
0.140286
0.676719
0.676719
0.676719
0.676719
0.676719
0.307664
0.158156
0.68914
0.676719
0.687207
0.692058
0.676719
0.676719
0.676719
0.700733
0.175701
0.839804
0.676719
0.550202
0.676719
0.676719
0.376363
0.207481
0.676718
0.676
0.676719
0.676719
0.676719
0.676719
0.676719
0.676718
0.672551
0.773112
0.124126
0.676719
0.676719
0.673415
0.676719
0.694636
0.676719
0.686706
0.676719
0.676719
0.676719
0.663795
0.676311
0.675781
0.675582
0.676719
0.676719
0.67592
0.676719
0.106619
0.685974
0.697794
0.196456
0.676719
0.680228
0.676719
0.676719
0.676719
0.676719
0.676719
0.676719
0.147053
0.676719
0.707324
0.676719
0.675019
0.676687
12.862
0.676719
0.676719
0.379476
0.14983
0.676719
0.676719
0.676719
0.676719
0.677962
0.676719
0.150505
0.676198
0.676719
0.675394
0.672153
0.676626
0.674688
0.676719
0.67355
0.676719
0.676719
0.708704
0.676649
0.676719
0.684699
0.676719
0.676719
0.676719
0.676719
0.674966
0.69812
0.676719
0.674833
0.673169
0.702138
0.0876443
0.676719
0.676719
1.31732
0.676719
0.676715
1.79653
0.676719
2.25104
1.16177
1.04751
0.159232
0.676719
0.676717
0.676719
0.676719
0.676716
0.178367
0.676719
0.18543
0.676719
0.65327
0.701413
0.676719
1.01105
0.676719
0.676714
0.676495
1.67255
0.128481
0.676719
0.580394
0.676614
0.676719
0.676719
0.676514
0.676705
0.676719
0.721876
0.173429
0.67471
0.676719
0.675218
0.676719
0.687464
0.676719
0.687557
0.676719
0.676719
0.676478
0.686306
0.676719
0.676985
0.685265
0.676687
0.676626
0.676719
0.689439
0.676673
0.676719
0.676719
1.75948
0.676719
0.676719
0.676719
0.672117
0.775652
1.74248
0.744383
0.673209
0.607388
0.676719
0.676559
0.675672
0.67488
0.676719
0.676719
0.682863
0.682259
1.20239
0.676719
0.676719
0.165784
0.180682
0.698424
0.676719
0.676719
1.07693
1.00385
0.695062
0.690875
1.48776
0.676719
0.676457
0.666429
0.676719
0.676719
0.687149
0.683377
0.673852
1.04401
0.160822
0.790399
0.676719
0.926754
0.687204
0.676719
0.676719
0.72292
0.674604
0.676719
0.676719
0.676719
0.674414
0.675182
0.674209
0.351818
0.676719
0.676719
0.676719
0.676718
0.684627
0.865393
0.676719
0.676719
0.676719
0.648381
0.693917
0.676719
0.676669
0.676482
0.676719
0.673184
0.676719
0.676719
0.721923
0.674464
0.795117
0.676719
0.673963
0.676719
0.67366
0.67348
0.67334
0.676719
0.674649
0.671608
0.676719
0.676719
0.676719
0.676719
0.674924
0.674045
0.673451
0.718595
0.68529
0.672202
0.687185
0.65474
0.687449
0.690608
0.676719
0.676719
0.687337
0.676719
0.685671
0.676719
0.676229
0.676698
0.686469
0.676719
0.673257
0.689852
0.676719
0.676719
0.676711
0.676719
0.676698
0.676719
0.226968
0.676719
0.676719
0.67963
0.676719
0.681202
0.692179
0.171237
0.678058
0.173995
0.682206
0.157519
0.676719
0.676719
0.676719
0.1951
0.676719
1.33557
0.676719
0.676001
0.676719
0.676719
0.676719
0.676719
0.676719
0.676346
0.676719
0.149362
0.676719
0.676719
0.671313
0.674791
0.676719
0.700254
0.204975
0.676719
0.676719
0.676719
0.121716
0.572871
0.691603
0.688677
0.699135
0.676719
0.676719
0.676719
0.676516
0.676719
0.676719
0.686148
0.676719
0.676719
0.676719
0.675388
0.676719
0.676719
0.676714
0.676719
0.680513
0.69647
0.683464
0.703138
1.17045
0.676719
0.676719
0.737315
0.676585
0.676719
0.670845
0.68782
0.676719
0.676719
0.689544
0.562555
0.953203
0.676719
0.676719
0.687168
0.711754
0.676719
0.676719
0.676719
0.683424
0.670338
0.673173
0.692056
0.676719
0.676719
0.676719
0.676719
0.676719
0.676719
0.676719
0.676719
0.676719
0.676719
0.676719
0.676719
0.676719
0.671022
0.676719
0.864738
0.670645
0.675037
0.672417
0.172141
0.159514
0.673993
0.672471
0.676719
0.676437
0.676711
0.543553
0.323262
0.199834
0.673347
0.647554
0.717248
0.671098
0.668423
0.686834
0.674776
0.673929
0.741826
0.754697
0.670704
0.676719
0.676719
0.676531
0.676582
0.186109
0.671478
0.697448
0.671596
0.673163
0.676689
0.676719
0.676719
0.672831
0.675847
0.6765
0.676719
0.120837
0.675097
0.676719
0.676719
0.676645
0.676719
0.676719
0.676719
0.16939
0.676719
0.676719
0.676719
0.68157
0.675302
0.673841
0.673594
0.676719
0.677323
0.676718
0.676688
0.676719
0.672622
0.823754
0.443806
0.676715
0.673895
0.676719
0.676719
0.674909
0.101157
1.28791
0.712573
0.130948
0.676719
0.669719
0.676719
0.676719
0.676719
0.675497
0.676719
0.0107731
0.676719
0.0972887
0.670843
0.676714
0.676719
0.684257
0.675055
0.148093
0.676719
0.699842
0.676719
0.6762
0.670154
0.676719
0.676719
0.671741
0.676719
0.676719
0.676719
0.694209
0.689111
0.676719
0.718553
0.676719
0.676719
0.676719
0.676719
0.676719
0.676719
0.676719
0.676719
0.676719
0.676719
0.699549
0.676719
0.675287
0.676396
0.690292
0.688468
0.389865
0.670402
0.676719
0.676719
0.676719
0.763648
0.668392
0.676719
0.676719
0.664576
0.672886
0.672314
0.158491
0.67638
0.676719
0.198097
0.191597
0.673725
0.676719
0.676713
0.67557
0.146194
0.676708
0.670435
0.676719
0.676719
1.14359
0.720853
0.674865
0.682503
0.676867
0.676681
0.675978
0.688032
0.676719
0.596809
0.68629
0.685651
0.688746
0.676719
0.676719
1.30773
0.700737
0.676719
0.676719
0.676719
0.676719
0.676719
0.676719
0.18172
0.393326
0.0677761
0.676719
0.676719
0.676719
0.676717
0.67585
0.676719
0.676719
0.673166
0.827237
0.676719
0.221077
0.183072
0.676719
0.676227
0.676719
0.734025
0.676719
0.67326
0.673342
0.15185
0.676715
0.676719
0.676719
0.676719
0.674381
1.19678
0.67444
0.676684
1.46325
0.677482
0.676719
5832.34
0.676719
0.67264
0.676634
0.676719
0.0954466
0.676719
0.676719
0.676603
0.675151
0.675295
0.675785
0.689856
0.675016
0.675441
0.675492
0.671098
0.675685
0.676719
0.674458
0.675984
0.690329
0.203028
3195.82
0.673577
0.673759
0.685937
0.676719
0.690406
0.136893
0.671114
0.688229
0.331355
0.676718
0.68622
0.672146
0.676719
1.179
0.278054
0.673186
0.68809
0.685916
0.264015
0.676719
0.676691
0.673255
0.667553
0.67399
0.676717
0.716205
0.676715
0.67669
0.688569
0.171569
1077.94
0.676719
0.258042
0.676719
0.258206
0.676686
0.676719
0.113991
0.676445
0.690256
0.671092
0.672402
0.689453
0.790148
0.675269
1.18407
0.676603
0.153206
0.866078
0.674699
0.676719
0.674677
0.602156
0.690787
0.672397
0.676719
0.676719
0.693452
0.676719
0.676719
0.678676
0.672637
0.685919
0.676719
0.676719
0.676719
0.154042
0.676714
0.676719
0.676719
0.530729
0.676278
0.676719
0.671897
0.687564
0.676719
0.676715
0.71205
0.678216
0.676719
0.676719
0.131424
0.776244
0.67628
0.301381
0.685607
0.686295
0.459227
0.676719
0.672315
0.686732
0.676719
0.676719
0.684878
0.672959
1727.91
0.676719
0.67373
0.407339
0.674618
0.233262
0.673039
0.673974
0.664386
0.709163
0.234408
0.696786
0.169406
0.676719
0.676719
0.165031
0.676719
0.676719
0.179141
0.531086
0.67666
0.675859
0.676719
0.676719
0.688787
0.180855
0.676719
1.16241
0.676719
0.676719
0.309091
0.144911
0.6894
0.674975
0.121828
0.67335
0.710362
0.676214
0.676719
0.676719
0.676719
0.676719
0.6866
0.690557
0.676719
0.676719
0.681021
2.30748
0.68866
0.705471
0.180299
0.656173
0.686106
1.08846
0.676719
0.699017
0.685842
0.179392
0.676719
0.676719
0.871458
0.676719
0.676719
0.676728
0.676719
0.676719
0.686522
0.181436
0.670526
0.676719
0.663801
0.681225
0.686399
0.676719
0.676719
0.676719
0.676719
0.20484
0.676719
0.129944
0.13046
0.676719
0.676719
0.701396
0.673482
0.095729
0.146854
0.676719
0.689623
0.158045
0.676719
0.676719
0.676719
0.66853
0.676719
0.676719
0.676719
0.676719
0.687971
0.676719
0.675816
0.671383
0.681521
0.691522
0.676719
0.170976
0.154637
1.12839
0.674446
0.676719
2.1859
0.676719
0.676719
0.676719
0.134332
0.676719
0.688861
0.15038
0.676719
0.676719
0.190406
0.676719
0.676719
16.7111
0.147854
0.67503
0.145937
0.676719
0.676719
0.676719
0.676719
0.676719
20.9045
0.676719
0.104935
0.687605
0.676719
0.676719
0.739852
0.676719
0.194446
0.686831
0.676719
0.676719
0.676719
0.676719
0.685965
0.173397
0.676719
0.688438
0.168343
0.676719
0.676719
0.686959
0.676719
0.676719
0.687308
0.686548
0.676719
0.676719
0.671744
0.187608
0.68805
0.18616
0.153091
0.67415
0.145229
0.676719
0.676719
0.676719
0.676719
0.676719
0.674704
0.674995
0.676719
0.686866
0.679274
0.68799
0.676137
0.676719
0.975302
1.91911
0.685972
0.829404
0.676719
1.79008
0.676719
0.676719
0.676719
0.676719
0.202025
0.676719
0.153416
0.676719
0.676719
0.676719
0.676719
0.688057
0.685945
0.183133
0.117144
0.676719
0.676719
0.568775
0.738165
0.676719
0.676719
0.692957
0.109034
0.675156
0.146839
0.67541
0.676719
0.676719
0.676719
0.676719
0.686346
0.139284
0.130466
0.676719
0.676719
0.687502
0.676719
0.18541
0.676719
0.676719
0.676719
0.688582
0.68673
0.688313
0.676719
0.685799
0.15727
0.676719
0.676719
0.676001
0.159117
0.676719
0.676719
0.676719
0.676715
0.676719
0.161233
0.690573
0.676719
0.676719
0.127935
0.676718
0.676719
0.220985
0.218609
0.689097
0.676719
0.676719
0.688827
0.676719
0.676719
0.676247
0.676719
0.676719
0.676719
0.676719
0.676719
0.672347
0.676719
0.676719
0.67201
0.686322
0.67224
0.679881
0.837829
0.676694
0.219941
0.679484
0.671152
0.687283
0.678554
0.676719
0.170755
0.674996
0.40787
0.675554
0.68869
0.680145
1.00036
0.674321
0.68988
0.676705
0.676719
0.733012
0.676719
0.670883
0.669688
0.508118
0.670529
0.677671
0.672438
0.667769
1.04675
0.68853
0.676719
0.676719
0.676719
0.102219
0.670282
0.676719
0.687703
0.676719
0.676719
0.676719
0.162842
0.675126
0.688222
0.676719
0.676719
0.674609
0.676713
0.670236
0.685555
0.67643
0.935377
0.517198
0.17426
0.676719
0.178744
0.614642
0.101009
0.683781
0.676713
0.676719
0.685339
0.696157
0.688647
0.676719
0.688783
0.76402
0.676719
0.676719
0.137344
0.676719
0.249988
0.68629
0.676719
0.154588
0.676525
0.676719
0.686156
0.688639
0.17162
0.682685
0.971058
0.676719
0.167313
0.688363
0.676719
0.676549
0.688263
0.221514
0.676719
0.676719
0.676719
0.212529
0.685711
0.161179
0.162548
0.339223
0.67922
0.130404
0.180538
0.676719
0.676719
0.676719
0.674973
0.676719
0.687785
0.699383
0.68263
0.663947
0.692845
0.245578
0.676719
0.680735
0.673595
0.676719
0.676719
0.688475
0.676713
0.676719
0.676719
0.77543
0.676514
0.675081
0.676718
0.675829
0.589945
0.723061
0.676719
0.676719
0.172184
0.676719
0.676719
0.741013
0.175113
0.686305
0.581469
0.676719
0.686903
0.69216
0.676719
0.676719
0.172671
0.687085
0.677866
0.676719
0.68735
0.173434
0.165831
0.673319
0.673008
0.673835
0.676719
0.584108
0.686777
0.676719
0.676719
0.673242
0.676701
0.674067
0.676719
0.695582
0.676719
0.676719
0.673917
0.67366
0.676718
0.676537
0.67665
0.676698
0.663095
0.675135
1.13506
0.192291
0.676719
0.322668
0.161457
0.677217
1.04945
0.721771
0.727782
1.11675
0.681567
0.675393
0.67332
0.676719
0.698945
0.676606
0.676719
0.40646
0.676719
0.676922
5.51522
0.67375
0.676719
0.676709
0.676719
0.995229
0.6749
0.67659
0.330833
0.674627
0.676719
0.67189
0.676719
0.779682
0.710508
0.676708
0.676719
0.676689
0.674336
0.676719
0.680194
0.704579
0.694477
0.676719
0.256684
0.676713
0.637473
11.6234
1.44773
1.09151
0.721606
0.676681
0.676719
0.670187
0.65668
0.676719
0.674401
0.445652
0.676717
0.676718
0.676719
0.677441
0.169291
0.676719
0.676719
0.676719
1.21915
0.726977
0.676719
0.676719
0.676719
0.686994
0.676719
0.675087
0.675569
1.04913
0.821841
0.840746
0.67572
1.27325
1.24035
0.676719
0.676719
0.676075
0.690419
0.676715
0.67644
1.75728
0.68505
0.824716
0.676719
2.61712
0.687787
0.676719
0.718883
0.462417
0.855114
0.742477
0.166666
0.676719
0.676719
0.675056
0.676719
0.674349
0.675388
0.770212
0.676279
0.792116
0.856061
0.676719
0.674405
0.676718
0.676719
0.68914
0.676652
1.47899
0.676719
0.676719
0.673154
0.670424
3.62432
0.51222
0.676719
0.768665
0.676474
0.676719
0.849723
0.219112
0.676719
0.669657
1.0912
0.676719
0.686789
0.677518
0.494892
0.684466
0.690951
0.714102
0.705453
0.670715
0.674969
0.468597
0.676719
0.676719
0.730022
0.679409
0.610073
0.828406
0.724788
1.62178
0.676719
0.676264
0.685384
0.657255
0.66707
0.67369
0.674577
0.672081
0.675132
0.596018
1.44549
0.673727
0.336697
1.09301
0.685441
1.07192
0.503343
0.675271
0.68738
0.151883
0.675142
0.673614
0.689567
0.716843
0.70815
0.676703
0.66974
0.676719
0.67587
1.01552
0.672506
1.69606
0.677658
0.673395
0.146185
0.676714
0.676506
0.161064
0.678464
0.676719
0.516588
0.676712
0.676607
0.674197
0.686825
0.676719
0.676719
0.676719
0.676719
0.122422
0.673274
0.676719
0.67662
0.676719
0.360526
0.676719
0.67384
0.676715
0.676719
0.672065
0.671742
0.676323
0.676665
0.288622
0.671967
0.676686
0.672079
0.676711
0.676719
0.159327
0.676721
0.674783
0.676719
0.673414
0.67482
0.674289
0.676671
0.676719
0.672402
0.681508
0.952367
0.673025
0.675487
0.674164
0.673154
0.686324
0.673609
0.324036
0.674253
0.675644
0.675413
0.676401
0.915283
0.690826
0.672445
0.388134
0.369055
0.67444
0.673311
0.846187
1.10358
0.897762
1.19507
0.666363
0.673975
0.672978
0.675457
0.676719
0.698787
1.34711
0.671
0.671687
0.691916
0.675757
0.674036
0.668708
0.67193
1.72652
0.690059
0.67425
0.687279
0.676719
0.672685
0.671898
0.669947
0.325576
0.225567
0.670161
0.682113
0.673266
0.675126
0.676698
0.67234
0.676704
0.676719
0.700042
0.673951
0.669813
0.672964
0.673822
0.918031
0.831288
0.673231
0.702372
1.36767
0.675648
1.16102
0.676384
0.930531
0.675349
0.67598
0.696262
0.193139
0.696709
0.408368
0.796784
0.725583
0.676019
0.676719
0.662488
0.676719
0.712599
1.24457
1.09682
0.704289
0.873783
0.676719
0.683996
0.717131
0.674643
0.672685
0.668188
0.984944
0.726221
0.857778
0.683512
0.676664
0.675508
0.673265
0.675
0.698012
0.676718
0.676719
0.676242
1.1157
0.676719
0.676695
0.676719
0.676719
0.675251
0.676719
0.676719
0.676719
0.676719
0.376529
0.676719
0.673467
0.703365
0.67645
0.671017
0.676137
0.676719
0.676719
0.602499
0.676719
0.676719
0.695182
0.673362
0.674294
1.45188
0.550801
0.676449
0.676719
0.485035
0.673142
0.676519
0.15886
3.51221
0.67307
1.16056
0.676067
0.699637
0.670323
0.670651
0.690119
0.683302
0.429352
0.676575
0.801069
0.705139
0.126121
0.673132
0.672633
0.67352
0.830494
0.670034
0.672806