/*--------------------------------*- C++ -*----------------------------------*\
| =========                 |                                                 |
| \\      /  F ield         | OpenFOAM: The Open Source CFD Toolbox           |
|  \\    /   O peration     | Version:  2312                                  |
|   \\  /    A nd           | Website:  www.openfoam.com                      |
|    \\/     M anipulation  |                                                 |
\*---------------------------------------------------------------------------*/
FoamFile
{
    version     2.0;
    format      ascii;
    arch        "LSB;label=32;scalar=64";
    class       volScalarField;
    location    "0.1";
    object      p;
}
// * * * * * * * * * * * * * * * * * * * * * * * * * * * * * * * * * * * * * //

dimensions      [1 -1 -2 0 0 0 0];

internalField   nonuniform List<scalar> 
32842
(
101325
100988
101325
101325
101325
101325
100327
91891.4
101325
101325
96392.6
93974.4
101325
101325
101325
101322
101325
101325
101325
101325
101325
101325
101325
101325
101325
101325
101325
101325
94824.1
101325
95346.9
101325
94866.8
101325
95499.5
93471.4
101325
101325
101325
101325
101325
101325
101325
101325
101325
101325
95415.2
101325
101325
95160.7
94523.8
101325
101325
95235.4
101325
100447
101325
95299.8
101325
101325
94080.9
101325
101325
101325
101325
95310.9
101325
101325
101325
101163
101325
99283.3
101325
101325
101325
101325
94744
101325
101325
95927.6
101325
101325
101325
101325
101325
101325
101325
100479
94775.5
101325
101325
101325
97774
101325
101325
101325
101325
101325
101325
101325
101325
101325
100735
98766.2
101325
101325
95143.9
100926
101325
101090
101325
101325
94523.8
101325
100781
101325
101325
98944
101027
101325
101325
101325
93332.2
101325
100885
101325
101325
101325
96654.5
101325
101325
100392
101325
101325
101325
101315
100118
100134
101325
101325
101325
101325
101325
99963.7
101325
101325
89266.2
101325
101325
101325
100808
101260
101325
95523
101296
101325
101325
101325
101325
101325
101325
101325
101325
101325
101250
101325
101325
101325
101325
93229.5
100030
101325
98998.4
101325
101325
98711.2
101325
100875
101325
101325
101325
101325
101325
101325
101325
101325
101325
101325
101325
101325
101325
100993
101325
101325
101325
101325
101325
101325
101325
101325
101325
101325
100746
95806.4
95109
101296
101325
101325
101325
101325
101325
101316
98749.1
98943.9
101325
101325
101325
101325
101325
101316
100189
101325
101325
101325
101325
101324
101325
101325
101325
95670.3
101325
101325
101325
101325
97936.9
101325
101325
100335
101325
101325
93167.3
101325
101325
95374.9
101325
101325
101325
101325
101325
101325
101325
101325
101300
101325
101325
101325
101325
99229.2
101325
101325
101325
101325
101325
101325
101325
101325
101325
101325
101325
101325
101325
101325
101325
101325
101325
99658
101325
101325
101325
101325
101325
98109.4
96280.3
101325
101325
100758
98430.5
101325
101325
101325
91049.2
101325
101325
97445
93246.7
100974
101325
101325
101325
101325
92251.6
101325
101325
101325
101325
101325
101325
101325
101325
101325
101325
101325
101325
101325
101325
101325
101325
98551.1
101325
101325
101325
94270.9
101325
101325
101325
101325
101325
101325
101325
101325
101325
101325
101325
101325
101325
101325
101325
101325
101325
101325
101325
101325
100397
101325
101325
101325
101325
101325
101325
101325
101325
97600.3
101325
101325
101325
101325
101325
101325
101325
101325
101325
101325
101325
93303.6
101325
101325
101325
101325
100334
101325
101325
88752.3
101325
101325
101325
101325
101325
101325
100583
101325
101325
101325
101325
101325
101325
101325
101325
101325
101325
101325
101325
101325
101325
101325
101325
101325
101325
101325
101325
101258
98383.4
101325
101325
101121
98049.2
101318
101325
101325
101325
101325
101325
101325
101325
101325
101325
101325
101325
101325
101325
91706
101324
101325
101325
101325
89454.7
101325
101325
101325
101292
101325
101325
101325
101325
101325
101325
101325
101325
97380.6
94670.9
101325
101325
94840.7
101325
101325
101325
101325
101325
101325
101325
100542
101325
101325
101325
96720.2
101325
101325
101325
101325
101320
101325
101325
101325
101325
101325
101325
101311
101325
101325
101325
100844
101325
101325
101325
101325
101325
101325
101325
101325
101325
101325
101325
101325
101325
95884.5
101325
101325
101325
101325
101011
101325
101325
100687
101325
101274
101325
101325
101325
101325
100248
101325
101325
98553.3
101295
101325
101325
101325
101325
101325
98718.3
101325
101325
101325
101325
101325
101325
101325
101325
101325
97913.6
92886.2
94945.7
98965.9
98750.6
99164.9
96817.4
101325
101325
101325
101325
101325
95042.8
101325
100387
101324
101325
101325
91866.6
101325
96870.2
95875.2
101324
96562.1
101137
99404.3
101325
101325
101324
101325
97372.2
101325
101325
101325
93671.4
101325
101325
101325
101325
101325
93690.9
94024.5
101325
101325
101317
101325
93831.8
101325
101325
101325
101325
94521.4
101325
101325
94933.4
101325
101325
98484.5
101325
101325
94734.1
101325
101325
101325
100285
101325
101325
101325
101325
101325
101325
101325
101325
101325
101325
94562.1
101325
101325
94478.8
101325
101325
101325
94431.2
94370.2
94557.2
101325
88917
101325
95365.8
100731
95148.2
101325
101325
101325
101325
101325
95072.6
101325
101325
101325
101325
101325
101325
101325
101324
95042.8
101325
101325
101325
92902.6
95192
99816.7
101325
95256.9
101325
101325
101325
95356.6
101325
101325
101325
101325
96229.8
101325
101325
101325
101325
100819
101325
101325
96281.4
96278.4
101324
101325
101325
101325
101325
101325
101325
101325
101325
101325
95650.8
95379.9
101325
101325
95829.3
101323
100376
101325
101325
101325
101325
101249
101294
95593.8
101325
95470.1
101325
101325
95532.8
95448
99563.5
100216
101325
101325
101325
101325
95380
96193.9
95576.8
95896.5
101243
100766
95565
101325
95415.5
101325
101325
101325
96118.6
101325
101325
101325
101325
101325
101325
101325
101325
101325
101325
101325
101325
101325
101325
101325
101325
101325
101325
101325
101325
101325
101325
101325
101325
101257
101325
101325
101325
101325
101323
101325
101325
101325
101325
101325
101325
101325
101325
101325
101325
101325
95144.7
101325
101325
101325
101325
101325
100564
101325
101325
101325
101325
101325
101325
101325
101325
101325
101325
101325
101325
96758.7
96583.7
101325
101325
101325
101325
101325
101325
101325
101325
101325
94694.2
101325
101091
101325
101325
101325
101145
101325
101325
101325
101325
101325
101325
101325
101325
101325
101325
101325
101325
101325
101325
101325
95315.1
101324
101325
95049.5
101325
101325
101324
101325
101325
101325
101325
101325
101325
101325
101325
101325
101325
101325
101325
101321
100347
101325
101325
101325
99614.7
101325
101325
101325
101325
101008
101325
101325
101325
101325
101325
101325
101325
101325
101205
101325
101325
86202.8
101325
93608.3
101325
101325
101295
101263
101325
101325
101325
101325
101325
94361
101325
101325
101325
101325
101325
101325
95641.5
101325
101325
101325
97304.7
101325
101325
98120.8
101325
101325
101325
101325
101325
101325
101325
94276.4
101325
101325
101325
101325
101325
101325
101044
101325
101325
101325
101325
101325
101127
101325
101325
101325
101322
101133
101325
101325
101079
95044.4
101325
100910
94544.8
101325
101325
101325
101325
101325
101325
101325
101325
101325
101325
101325
101325
101325
100927
101325
101325
101325
101325
101325
93974.9
101325
101325
101325
101325
101325
101325
101325
101325
101325
101325
101325
101325
101325
95263.3
101325
101325
101325
101325
101325
101325
94441.3
94614.8
101325
101047
101325
101325
101325
101325
101325
101325
101325
101325
101325
101325
101325
101325
96155
101325
101325
101325
101325
101325
101325
101325
101325
94437.9
94446.9
94562
101325
101325
101325
101325
94660.2
101325
94355.1
94298.8
94586.3
94000.1
101325
97744.8
101325
99587.5
93107
101325
97765.5
99999.5
101325
101325
101325
93789.7
101325
101325
101325
91081.9
101325
101325
101325
101325
101325
101325
101325
101325
101325
101325
101325
99803.6
101325
101325
98542.8
101325
101325
101238
101325
94763.2
95383.5
101325
101325
101325
101325
100918
101325
99763.3
101325
99470.2
101324
101322
96126.8
101325
101325
101325
101325
101316
98993.3
101290
101325
101325
101325
101325
101325
101278
100132
101325
101325
92823
101152
101325
101325
99080.1
95698.1
101325
101325
101325
101325
99451.6
101325
101325
99716.6
101325
101256
99820.7
101325
101325
101325
101325
95588.5
101321
101283
100098
92390.6
101325
101325
98929.6
101325
96238.3
101325
101325
101325
101233
99046
99805.1
99433
99491.7
101325
93781.3
101325
100955
101325
101325
101325
101325
101325
101317
101325
93100.3
101325
101325
101155
101325
101325
96008
100415
101071
100884
101325
95198.2
96734.8
101325
101318
101325
101239
95264.9
97716.4
101325
100823
98026.8
101325
100076
100807
101325
93096.1
101325
101322
100864
101325
101325
95043.8
97514.9
98534.7
101325
101325
101325
101325
100802
100621
100028
101325
101325
98388.1
101325
101325
96147.8
101325
99111.8
98885.9
101325
101325
98863.4
99545.7
99284.7
99271.3
101325
96763.6
99624.1
101325
98538.6
100636
101325
101325
101325
101146
91718.9
101325
101325
94128.4
101325
100009
95203.5
101325
100432
94805.4
99620.3
101325
101325
99172.2
101325
101325
94922.3
100824
97110.7
99516.1
101323
101325
101325
101325
99371.8
100926
101325
100977
101325
93872
101324
95200.4
93168
100767
94935.1
93022.8
94860.3
99161.1
98809
97139.7
101007
101325
98751.9
99973.4
101325
101325
99030.5
101325
100901
101324
100189
101325
99799.3
101325
101325
90276.4
101325
98482.3
101325
101325
89435.7
101324
100563
94876.6
98621.6
101325
101325
101325
101325
101325
93448.8
101325
101325
101325
95046.6
101325
97561.4
101325
101325
101325
101325
95347.2
101325
101325
93947
101277
101322
101137
94823
101325
101325
101247
98908.6
99468
101325
96907.6
101325
94160
94900.5
100563
101325
94274.2
100584
101320
100960
94875.3
98685.1
99001.8
97750.2
96592.2
101325
99120.7
101325
96570
101325
101325
101325
99782
101325
101325
101325
95256.3
99916.3
101325
101325
96899.3
101325
101325
101325
93194
94759.9
101325
101325
101324
99890
99798.1
101325
101288
101325
99560
95853.1
101325
101255
101325
101325
101315
99994
101325
101325
101325
101276
99918.2
101325
94484
96391.9
101325
101325
99184.8
101325
101325
101316
92919.6
101325
100695
101325
101325
100711
100892
101111
101325
101325
101325
101325
101325
101305
101325
101325
99142.2
101145
101325
95887.6
100473
101325
101325
100906
101325
101324
99826.7
101325
101241
100892
100594
94306.2
98147.4
101325
101325
98018.2
101325
101325
96879.9
97826
101325
101325
101244
101325
96462
101325
97469
101325
101325
101325
101325
97557.1
101325
101325
101325
97844.9
95096.9
101325
98298.9
101325
101325
101219
101325
97898.3
99055.2
101325
98600.3
101325
95615.4
101325
100249
101325
100072
101325
98570.5
101325
101325
101325
99800.3
95378.5
100637
101325
101325
98976.6
101325
101325
96212.8
101325
99556.6
101325
101325
101324
101325
101325
101325
99367.2
101325
99978.5
101220
101106
101325
101322
101325
101325
101325
98659.4
101325
101325
101325
101325
101325
101325
101325
101325
97478.5
101325
101325
101325
101325
101325
101325
101325
101325
101325
97079.1
101323
101319
101325
101325
100821
100829
100080
101325
100604
101325
99776.4
101325
101325
101313
100202
99562.5
101317
97856.1
97745.9
97896.9
101325
97276.5
100200
101325
101320
97147.9
98079.6
101325
101325
101304
101325
98003.3
98778.1
101325
101325
101322
101322
100930
95364.2
101325
96743.4
98271.4
101325
100749
101200
100609
100606
101325
101313
101325
101325
97569.7
101325
100820
101325
101325
101325
101325
101325
101325
101325
100610
101325
98906.6
101325
99930.7
99840.7
101325
101325
95006.7
101325
101325
99757.4
100289
101325
101259
101325
101325
99422.3
94316.2
100228
101325
101325
101322
101325
99614.4
101325
101325
101325
101148
101325
101325
98436.7
101325
101325
101325
101325
94302.8
101325
98967.3
101325
101325
101325
96352.4
100114
95345.5
96618.9
101325
101325
101325
101325
101325
97166.6
97086.4
101325
101325
101325
101325
101325
101325
101325
101325
101325
101325
99770.4
101325
101325
101325
101325
101325
101325
101325
101325
101325
100154
99914.8
100157
101325
101325
101325
101325
100758
97444.3
101325
101325
101325
101325
100101
98070.8
95949.3
97869
101325
101324
93393
101312
101325
101325
101325
101325
100904
94886.5
101295
101227
101325
96372
101325
101325
100646
101325
101325
101325
101325
95826.6
101325
99329.3
95326.9
101325
101325
101325
101325
101325
101325
101325
101325
99615.9
100916
100036
98879.7
101001
99907
101325
101325
101325
99967.8
100372
101325
101325
100147
101325
101026
99738.2
101325
101325
100050
101321
101323
101325
101325
99361.5
101325
101301
101325
101325
101322
101307
101322
101165
101325
101325
100120
101325
101292
101325
101325
93600.8
101121
101266
101325
100461
101325
101325
100235
100983
98970.5
100347
101325
98141.6
101325
101325
101325
94451.9
101325
101325
101325
99660.6
101325
101325
101325
101325
101325
101325
101325
100119
101325
101325
101324
101325
101325
101325
101325
101325
101325
100641
101325
99215.8
101325
100708
101325
100794
95958.1
101325
99780.4
100709
100850
101325
101325
100551
101325
99134.8
101325
101325
101325
101325
101325
101325
101325
101325
101325
100066
101325
101325
101325
100951
101325
101325
101325
101325
101325
101325
101325
101325
101325
101325
101325
94820.7
94820.4
101325
101325
101325
101318
101325
101325
101325
99255.7
101325
91889.7
101325
97851.6
101325
101325
100574
101325
101325
101160
101325
101325
101325
101325
101325
101325
100316
99430.8
101325
101325
101325
96605.2
101325
98992.3
101325
101325
101325
101325
101325
95358.3
101173
101108
101062
101325
101325
101155
101325
101325
101325
98875.2
101325
101325
98623.4
101325
101325
101325
101325
101325
101325
101325
101325
101157
101325
100933
101318
82053.4
101325
101325
95816.7
101325
101325
101325
101325
101325
100524
101325
101325
101207
101325
100478
99138.7
101304
100851
101325
100556
101325
101325
97326.4
101309
101325
101325
101325
101325
101325
101325
100921
101216
101325
100887
100186
98801.3
90696.8
101325
101325
93312.2
101325
101324
95593.2
101325
95725.8
95927.6
95899.7
101325
101325
101325
101325
101325
101324
101325
101325
101320
101325
95425.1
100973
101325
96177
101325
101324
101271
92583.6
101325
101325
92697.1
101301
101325
101325
101279
101322
101325
96949.4
101325
100856
101325
100974
101325
97752.2
101325
99098.8
101325
101325
101270
101325
101325
97992.4
95626.9
101318
101304
101325
99317.1
101315
101325
101325
99128.3
101325
101325
101325
100173
98221.4
98717.4
96299.7
99833.7
97647.3
101325
101289
101085
98748.2
101325
101325
99153.7
101325
94386.5
101325
101325
101325
101325
95634.8
101325
101325
98638.9
92852.6
101223
98730.6
93369.4
101325
101266
98140.9
101325
101325
101325
98557.7
100738
97233.9
101325
98062.6
101325
94688.5
98958.7
101325
101325
97956.6
100834
101325
101325
101325
100747
100696
100735
87963
101325
101325
101325
101325
101325
94003.8
101325
101325
101325
99752.8
96741
101325
101314
101271
101325
100445
101325
101325
96769.4
100794
94422.6
101325
99217.8
101325
99588.2
99773.9
99053.2
101325
100823
99733.7
101325
101325
101325
101325
100911
100546
99640.4
98155.4
99258.9
94326.3
101325
94604.7
101325
101325
101325
101325
101325
101325
101325
101325
101213
101320
101325
101325
100417
101325
101325
101325
101323
101325
101320
101325
101325
101325
101325
99051.4
101325
97756.8
97663.5
101325
98079.6
101325
97179
101325
101325
101325
101325
101325
101325
96701.8
101325
101160
101325
101325
101325
101325
101325
101240
101325
101325
101325
101325
98258.4
100874
101325
96990.5
101325
101325
101325
101325
101325
98685.1
98894.6
97748.3
98541
101325
101325
101325
101279
101325
101325
101325
101325
101325
101325
101019
101325
101325
101324
101325
99545.2
99661.9
98918.5
100650
94324.7
101325
101325
98551.8
101295
101325
98639.7
101325
101325
101325
101325
92650.2
100155
101325
101325
101325
98552.5
101325
101325
101325
100180
98959.9
100494
101325
101325
101325
101325
101325
101325
101325
101325
101325
101325
101325
101325
101325
101325
99850
101325
100001
99774.8
98438.2
99557.5
101325
101325
100137
100000
101325
101261
101323
100308
101293
101324
100529
98450
95883
99875.4
99082
101325
100789
100672
97920.3
99766.8
99648.3
101325
101325
101282
101294
101325
100015
101305
99982
100488
101318
101325
101325
100301
101113
101275
101325
101325
100952
101325
101325
101308
101325
101325
101325
101325
101325
101325
101325
98499.6
100995
100613
100554
101325
99660.4
101325
101318
101325
100266
98917.2
99940.6
101324
100512
101325
101325
99826.9
101325
96213.9
96153.6
101325
101325
99911.1
101325
101325
101325
101043
101325
97526.5
101325
95521.1
99760.6
101324
101325
101324
100933
101325
101325
101259
101325
101207
99583.6
101325
101325
96628.2
101325
101325
101325
97065.4
99434.4
101325
100207
101325
101325
101325
101325
101325
101325
101325
101325
101325
101325
100899
101325
101017
101252
101324
101325
95208.6
98035.7
101325
101325
101325
99509.9
98413.3
101325
101325
95336.2
98512.7
100257
95480.1
99933.9
101325
101325
101325
100633
101325
101324
101057
101325
101323
97770.5
101325
101325
96232.2
91779
100894
98083.3
97169
101316
101154
101325
101325
96538.9
101325
101325
101325
101325
101325
96243.6
101318
101325
101325
101325
101325
101325
101325
101325
96615.7
95007.6
101325
101325
101325
101325
101124
101325
101325
100481
100005
101325
101256
101325
101325
101212
101325
96918.1
101325
100495
100389
101325
101324
101325
101325
101325
100777
98116.5
100784
101317
99453.3
99114.9
101325
93979.4
101325
100325
101305
101325
101325
101325
101325
101299
100961
100993
101112
101325
100928
100981
101038
99965.8
101083
101325
100795
101157
101325
101325
94303.1
100530
100615
101325
101325
101324
101325
99930
101325
100868
101325
101325
100171
101325
96582.5
98426.6
100265
101325
101325
101320
101325
101319
100482
98112.4
100665
101324
100662
101324
101319
101303
95489.1
90787.8
101325
101322
101325
101323
101318
101325
101325
101263
101325
99655.4
100256
101325
98291.1
100987
94898.6
101299
101325
99406.6
100811
101325
100833
95470.4
98800.1
99655.3
101325
101325
98836.6
101325
101325
98921.5
99113.2
101325
101325
101325
101325
101325
101324
101325
101325
100303
101225
101325
100141
101325
101325
101324
98445.4
98970.8
101325
101325
101323
100113
101225
101312
101325
101325
95185.8
101325
100274
101325
101325
101325
99764
100347
94083.7
101325
97230.2
95091.5
100267
101325
100406
100056
99964.3
97907.3
101325
98909.9
101325
101325
101325
101325
101325
101325
101325
99847.2
101312
101128
101325
101325
101325
101325
101325
99829.2
101325
101325
93769.7
101325
99340.1
100919
101325
96242.8
100521
98877.2
101325
101325
101325
101325
101325
101308
101325
101325
98889.6
98581.3
101325
97383.1
101325
96614.9
101325
98528.5
101325
98564.8
101325
101325
101325
101325
95731.6
101325
101325
101325
101325
101325
101325
101325
100241
101325
95782.4
95913.6
101325
101325
101325
101325
101325
93624.3
101325
101325
101325
101325
101325
96941.3
96488.7
101325
101325
101325
101325
101325
101325
101325
101325
96480.8
101325
101325
101325
101325
101325
101325
101116
96991.3
101325
101325
101325
101325
101325
98264.7
100869
101325
97058.9
101325
101325
101325
101325
101325
101325
101325
101325
101325
101325
101325
101325
98152.5
101325
100929
101325
101325
101325
101325
101325
101325
96622.3
101325
101325
101325
101325
101325
96318.3
101325
101325
101325
101325
101325
101325
101325
101325
101325
101325
101325
101325
101325
101325
101325
101325
101325
101325
101325
101325
101325
99457.2
101325
101325
101325
101325
100620
101325
101325
101325
101325
101325
101325
100851
100010
101325
101325
99064.2
101325
101192
101325
99581.3
99487.4
101325
99442.6
101325
99366.1
101325
101325
101325
101325
101325
101325
101325
101325
101325
101325
101325
101325
101325
101325
101325
101325
101325
99014.8
99072.6
101325
101325
99550.3
101325
100955
101325
101021
101325
101325
101325
101325
101325
101325
101325
101325
101325
101325
101325
101325
101325
101325
101325
101325
101325
101325
101325
101325
101325
101325
101325
101161
101325
101325
101325
101325
101324
101325
101325
101325
101325
101325
101325
101325
101325
101325
101325
101325
101325
101325
101325
101325
101325
101218
101325
101325
101325
101325
101325
99542.5
101325
101325
100118
98960.9
99931.1
96494.7
96746.8
101319
101325
99189.3
99589.6
101325
98665.5
101325
101325
99418.1
93226.2
99239.4
101325
98879.9
94073.1
100006
99391.4
101322
101325
101040
101325
98688.9
99149.6
95902.4
99644.9
99630.4
98905
96181.6
95664.3
96380.3
101325
101325
101325
83796
99132.3
101325
101325
101325
101325
101325
101325
100959
101325
101325
101325
100833
101324
100258
101325
101259
94768.4
96257
101325
101325
101325
96628.4
101325
101325
101324
101325
101325
101081
101325
101325
101325
96157.3
101325
101325
101325
101325
96191.8
101325
101325
101325
101279
101325
101325
101325
101325
95521.4
95218.2
101325
101325
101325
101325
101286
101325
101325
101325
101325
101325
101325
101325
101325
90485.9
90341
96810.6
101325
101325
101325
101325
101325
99167.2
101325
101325
100381
101325
97179.4
98822.6
95018.4
101325
97252.1
97304.4
101325
101325
101325
101324
101325
101325
94612.1
101279
100948
101325
101118
97700.6
100887
101325
101325
101325
101325
101325
100658
101325
101325
101160
101325
101325
98463.9
101325
101325
101325
101325
100282
101325
97062.2
101325
101325
100490
99456.9
100629
101325
95827.4
101325
101325
101325
100458
101321
100680
101325
101281
101325
101325
100669
100546
101325
101284
101310
101320
96493.3
100953
94925.2
101325
101325
101138
93433.6
100269
100328
100994
98305.6
99559
98125.7
101015
100377
101325
101036
101300
101325
94955.8
101325
97596.8
97217.5
100582
101325
101323
101325
99416
100715
101296
100241
100818
101325
99163
101325
95026.7
97075.9
101323
101325
101318
100755
101325
99123.6
101281
99102.8
101325
95442.9
101324
101260
97147
98008.2
94886.3
94593.5
101316
101325
97586.5
97088
101325
100779
94990.6
101325
101325
101325
98912.8
101325
101325
101325
101325
99847.7
100419
101325
101325
101325
101325
101325
100949
101059
100423
94962.4
100655
101094
99992.5
95400
101325
101325
101178
101325
101324
101262
99347.5
99930.9
99780.7
101325
96328.9
101325
101325
96035
99733.9
100594
100094
101325
101325
101325
100936
101325
100743
101017
98458
101225
100698
94621.6
101325
100758
101325
101325
101300
101310
92235
101325
101325
100434
99495.3
98116.9
93011.2
101325
100562
101270
101325
99980.5
93498
101325
99191.6
99523.4
101325
99717
99727.9
95331.7
99900.4
96520.6
100827
101283
99728.9
100921
99889.6
101325
101325
97670.8
100728
99208.7
98620.1
99149.7
99069.2
101325
101221
95959
99874.5
98260.7
99746.8
99708.4
99226.8
99121.6
99225.6
97611.9
100557
99023.1
95349.2
101325
95556.6
95626.8
100997
101325
101325
100958
98863.1
101325
99215
96987
101321
97738
101325
101119
100192
100095
99784.5
99984.5
100259
101325
101324
101277
101325
98230.8
101325
100338
101323
101300
100388
101325
101325
101325
101325
101325
101325
100057
101325
101303
101325
98420.1
101325
100624
101324
101325
99832.5
99706.9
101235
101313
96312.7
98527
101317
99456.9
101323
101325
101324
95750.1
100873
101325
100503
100885
97642.7
101314
101325
97864.5
98160.3
95481.3
100456
101041
100716
100467
101325
100432
100978
100734
101074
101019
101253
96191.6
101325
100146
101125
95816.3
100768
100505
95189.3
96038.3
99729.1
96397.7
96542.7
100130
100412
101033
101325
97306.4
93985.8
99848.3
99145.3
101317
101104
100699
98829.1
99927.5
95935.6
101325
100757
101325
101325
100361
99764.4
99688.4
95654.6
95290.2
99491.9
95531.6
100454
100946
101320
99810.7
101322
101325
101296
100272
99358.7
100356
100629
98458
96845.9
99570.8
98311.7
99113
101079
98178.7
101249
99407.9
101009
101156
101261
101279
96422.9
101105
99679.2
101069
99225.2
101325
99017.4
101325
98911.5
98950.7
96961.9
97755
96788
101325
96159.5
95865.1
100844
100383
97724.5
99325.9
99131.3
99449.8
99384.8
101312
101046
100477
100923
100758
101325
101325
100611
100103
101325
101320
101325
101325
100987
101325
101325
101325
101325
101256
101325
100468
97173.2
101264
99946.2
101192
101325
101325
95409.6
101325
101325
97741.1
99042
99462.8
96343.7
95137.6
101264
101325
99287.5
99617.7
99282.8
101325
96893
99418.1
98584
101176
94652.2
99683.9
99548.1
98290
95825.9
94573.3
98301.4
95317.4
97658.9
101325
100406
100169
99867.4
100224
99489.8
100397
101325
97926.4
99033.7
98011.1
99325.4
100819
101041
100228
101178
95598.4
101309
95918.9
99770.2
100936
101324
101249
99626.6
95650.2
95717.8
100837
100574
99786.8
101147
96335.6
101000
101202
101139
95555
99490.1
101164
100750
100500
98808.4
101313
101325
101321
95719.2
96079.8
95659.7
95537.7
101325
95982.4
99469.3
98105.2
95398.7
94924
100160
101231
99590.9
95911.8
101325
97904.5
95935.8
99766.9
100297
101169
101325
101058
100841
94757.7
100583
96027.1
101319
100243
101316
101325
101325
100508
99191.5
95507
96770.8
101325
101325
99571.6
96600.6
100916
96885.7
101325
101290
98421.5
98599
98730.9
101223
98070.1
100006
101324
101325
96307.9
101325
101325
95370.8
101325
96200.8
101325
101325
95528.8
101325
97490.1
95042.9
98208.2
96730.6
100464
98771.1
95256
96147.4
101325
101325
96352.5
99382.9
99061.4
101320
96514.6
98997.5
100861
101323
99628
98307.7
101320
99788
98063.9
97657.5
101226
101055
100304
98274.4
94714.5
99343.8
101161
98646.8
100942
100358
101317
99782.4
100147
99898.9
96254
101317
101202
101298
101311
96361
98943.6
101247
100524
98109
99299.9
101325
93936.3
98281.3
100412
96338.6
101054
101189
96586.1
99005.2
100629
101325
96255.3
101325
99698.9
100895
101324
101087
100634
99646.7
99711.6
101325
101235
96045.6
101325
98098.5
96946.7
101325
93997.6
99702.6
98585.3
99597.8
101325
95047.2
95786.7
99503.1
96828.5
98275.2
94585.9
99189.6
96850.6
96243.7
101324
99824.5
100933
100835
100141
98298.8
94581
94920.2
101136
101101
101325
99629.8
96453.5
100549
100686
100901
98062.3
101325
100016
96436.4
97894.3
96113.3
99187.5
101106
100391
98330.4
98330.9
100317
99319.1
101001
97730.1
99796.8
101322
100993
101067
101009
101152
98404.8
101325
100136
95920.5
97242.1
97346.5
97434.7
101325
94200.5
101325
101325
97105.9
101250
101325
101310
100359
101325
100774
97338.7
101321
101035
101295
99098
96019.4
99597.6
101324
100216
96360.3
100966
101325
101312
101316
101325
101325
97907.1
101288
97552.3
101069
101325
101252
94650.6
101280
101313
96836.2
101129
101047
100774
101176
98283.2
100675
101092
95567.7
100181
99425.8
99889.9
100741
98809.8
95539.6
101261
101187
101240
101160
100790
101325
101325
101299
101325
100460
101325
101325
99929.2
101234
100813
100422
96952.6
99692.8
98786.9
101205
100447
98769.1
96750
94637.9
100773
101325
99748
101324
101325
101291
99122.9
94712.4
101119
99847.4
101324
99322.4
100653
100632
100346
100212
99826.6
99387.7
98799.6
99637
99660.3
101325
100035
95100.2
101325
101323
101325
101325
100510
101325
101325
100579
100423
101325
101148
101140
101322
101271
100811
101315
101261
101325
100831
101121
100932
100598
97693.7
101325
101005
101325
101259
100580
98437.5
97473
100844
101325
97737.5
101280
101244
98070.9
99386.5
100677
100488
99264.6
101267
100037
97444.9
99687
97895.3
99316.8
97680.9
98519
101325
96528.7
101325
97198.9
101325
101325
101325
101325
100867
99547.7
100443
98016.2
99282.5
101325
101321
101188
94480.9
97437.5
95171.4
98117.6
99311.9
99786.9
100792
101325
99106.6
98926.3
98936.7
100835
94250.9
101094
101325
97461.9
101074
99778.4
101325
100735
101324
99793.8
101325
101156
98937.5
101325
97762.8
101317
101325
101325
101325
101020
97736.4
99943.5
98279.1
101324
98938.8
101325
96542.5
100359
96078.3
96594.2
100442
101325
101236
101325
99252
101325
97964.5
99286.4
101293
101325
101092
101325
99420.3
101325
100375
101325
96124.8
101325
100946
99413.1
101325
101325
99558.4
99825.9
101034
98380.2
99500.3
96562
99159.3
98836.5
101325
98760.4
101325
101325
95574.6
101325
99659.5
101325
100295
101325
100925
101325
101325
101299
101325
100244
101325
101325
99211.3
96866.1
98128.4
95079.6
101325
99860.6
101325
101325
99973.5
101206
96213.7
101179
101325
98869.5
100658
99849.9
99915.6
101325
99573.9
101227
95971.7
101325
101325
101325
98277.9
98469.6
101124
99725.3
101320
101144
101110
101137
101325
101325
101325
101325
99387
101325
101325
101325
101316
97175.9
100349
95986.1
96170.3
98746.1
100980
100426
101325
101323
100213
95762.7
97394.1
94521.4
101325
101325
101299
99419.3
96841.8
101272
101260
99353.5
101325
101325
99778.1
95822.5
100046
96366.1
101290
101321
101208
94951.3
96428.5
99413.6
101321
101311
98768
101324
99281.6
101301
101325
101325
100876
96086.6
96488.2
101318
101325
99074.7
96301.1
101238
101325
101322
94639.3
100037
100603
101325
101323
101325
101325
101325
101325
101325
101325
101325
101325
101325
101325
101325
101325
101323
101325
101325
101325
99259.9
101325
100665
101192
101325
101303
101325
101325
101325
101325
101325
101325
101050
101325
101325
101237
101325
101324
101325
101261
101325
101325
101325
101325
101325
101299
101325
100664
100057
101325
100444
101320
101325
101325
101325
101316
101325
101325
101325
101325
100542
101325
101309
101323
101242
101325
99715.4
101322
101325
101325
101325
99464.8
101325
101325
101325
99223.2
99309.6
101282
98782
101325
101325
101325
99265.8
100849
101325
101325
101325
101325
101325
101325
101325
101032
101325
101325
101325
98981.3
98811.9
98452.5
100666
101325
101325
100829
101325
101325
101325
101325
101308
101120
101325
101325
101325
101325
101325
101325
101325
101267
101325
101325
101325
101325
101159
101325
101324
101325
101169
101325
101325
101325
101325
101325
101325
101325
101325
101325
101325
99493
101325
101325
100878
101085
101325
101325
101325
101325
101285
101325
101325
100889
94573.8
101104
101325
101325
100082
101318
100996
101325
101297
101325
101325
101325
101324
101324
101319
101314
101325
101325
101292
101325
101325
101325
101325
101320
101325
101325
101325
101325
101325
101325
101325
101206
101325
101325
101325
101325
100865
100232
101136
101325
101325
100502
101325
101325