/*--------------------------------*- C++ -*----------------------------------*\
| =========                 |                                                 |
| \\      /  F ield         | OpenFOAM: The Open Source CFD Toolbox           |
|  \\    /   O peration     | Version:  2312                                  |
|   \\  /    A nd           | Website:  www.openfoam.com                      |
|    \\/     M anipulation  |                                                 |
\*---------------------------------------------------------------------------*/
FoamFile
{
    version     2.0;
    format      ascii;
    arch        "LSB;label=32;scalar=64";
    class       volScalarField;
    location    "0.1";
    object      T;
}
// * * * * * * * * * * * * * * * * * * * * * * * * * * * * * * * * * * * * * //

dimensions      [0 0 0 1 0 0 0];

internalField   nonuniform List<scalar> 
32842
(
300
299.722
300
300
300
300
250
250
300
300
250
250
300
300
300
299.997
300
300
300
300
300
300
300
300
300
300
300
300
294.54
300
295.712
300
250
300
250
250
300
300
300
300
300
300
300
300
300
300
295.7
300
300
294.522
250
300
300
295.626
300
299.286
300
295.784
300
300
250
300
300
300
300
295.644
300
300
300
299.866
300
298.371
300
300
300
300
294.848
300
300
296.029
300
300
300
300
300
300
300
299.306
294.429
300
300
300
297.239
300
300
300
300
300
300
300
300
300
299.513
297.951
300
300
293.546
299.671
300
299.806
300
300
295.012
300
299.551
300
300
298.118
299.754
300
300
300
293.122
300
299.637
300
300
300
296.434
300
300
299.232
300
300
300
299.992
299.008
299.031
300
300
300
300
300
298.889
300
300
254.282
300
300
300
299.575
299.946
300
295.607
299.976
300
300
300
300
300
300
300
300
300
299.938
300
300
300
300
292.719
298.947
300
298.212
300
300
298.008
300
299.63
300
300
300
300
300
300
300
300
300
300
300
300
300
299.726
300
300
300
300
300
300
300
300
300
300
299.525
296.116
295.507
299.976
300
300
300
300
300
299.993
298.008
298.157
300
300
300
300
300
299.993
299.081
300
300
300
300
299.999
300
300
300
295.739
300
300
300
300
297.453
300
300
299.19
300
300
293.117
300
300
295.686
300
300
300
300
300
300
300
300
299.979
300
300
300
300
298.364
300
300
300
300
300
300
300
300
300
300
300
300
300
300
300
300
300
298.657
300
300
300
300
300
297.49
296.295
300
300
299.533
297.697
300
300
300
250
300
300
297.048
293.131
299.711
300
300
300
300
250
300
300
300
300
300
300
300
300
300
300
300
300
300
300
300
300
297.761
300
300
300
293.754
300
300
300
300
300
300
300
300
300
300
300
300
300
300
300
300
300
300
300
300
299.238
300
300
300
300
300
300
300
300
297.13
300
300
300
300
300
300
300
300
300
300
300
293.057
300
300
300
300
299.182
300
300
250
300
300
300
300
300
300
299.39
300
300
300
300
300
300
300
300
300
300
300
300
300
300
300
300
300
300
300
300
299.944
297.388
300
300
299.831
297.567
299.995
300
300
300
300
300
300
300
300
300
300
300
300
300
260.117
300
300
300
300
250
300
300
300
299.973
300
300
300
300
300
300
300
300
274.541
295.129
300
300
294.39
300
300
300
300
300
300
300
299.356
300
300
300
296.346
300
300
300
300
299.996
300
300
300
300
300
300
299.989
300
300
300
299.603
300
300
300
300
300
300
300
300
300
300
300
300
300
296.026
300
300
300
300
299.741
300
300
299.474
300
299.958
300
300
300
300
299.117
300
300
297.811
299.975
300
300
300
300
300
297.957
300
300
300
300
300
300
300
300
300
297.352
250
295.507
298.133
297.973
298.298
296.565
300
300
300
300
300
295.389
300
299.236
299.999
300
300
291.784
300
267.219
296.211
299.999
296.634
299.844
298.451
300
300
300
300
296.991
300
300
300
293.013
300
300
300
300
300
293.443
293.515
300
300
299.993
300
293.451
300
300
300
300
294.833
300
300
295.221
300
300
297.725
300
300
294.938
300
300
300
299.146
300
300
300
300
300
300
300
300
300
300
294.891
300
300
294.863
300
300
300
294.842
294.725
250
300
288.594
300
294.784
299.51
294.658
300
300
300
300
300
294.435
300
300
300
300
300
300
300
299.999
294.321
300
300
300
292.59
294.488
298.788
300
294.655
300
300
300
295.731
300
300
300
300
296.502
300
300
300
300
299.583
300
300
296.527
296.465
299.999
300
300
300
300
300
300
300
300
300
295.771
295.596
300
300
295.892
299.999
299.223
300
300
300
300
299.937
299.974
295.8
300
295.92
300
300
295.718
295.641
298.59
299.091
300
300
300
300
295.654
296.198
295.742
296.153
299.933
299.538
295.811
300
295.29
300
300
300
296.482
300
300
300
300
300
300
300
300
300
300
300
300
300
300
300
300
300
300
300
300
300
300
300
300
299.944
300
300
300
300
299.999
300
300
300
300
300
300
300
300
300
300
300
295.466
300
300
300
300
300
299.376
300
300
300
300
300
300
300
300
300
300
300
300
296.741
296.526
300
300
300
300
300
300
300
300
300
294.804
300
299.808
300
300
300
299.852
300
300
300
300
300
300
300
300
300
300
300
300
300
300
300
289.248
300
300
295.11
300
300
299.999
300
300
300
300
300
300
300
300
300
300
300
300
299.996
299.2
300
300
300
298.627
300
300
300
300
299.738
300
300
300
300
300
300
300
300
299.901
300
300
250
300
293.389
300
300
299.976
299.949
300
300
300
300
300
294.039
300
300
300
300
300
300
295.775
300
300
300
296.922
300
300
297.453
300
300
300
300
300
300
300
293.36
300
300
300
300
300
300
299.769
300
300
300
300
300
299.837
300
300
300
299.997
299.842
300
300
299.798
294.532
300
299.658
294.153
300
300
300
300
300
300
300
300
300
300
300
300
300
299.672
300
300
300
300
300
292.432
300
300
300
300
300
300
300
300
300
300
300
300
300
295.362
300
300
300
300
300
300
294.017
294.874
300
299.771
300
300
300
300
300
300
300
300
300
300
300
300
296.315
300
300
300
300
300
300
300
300
294.845
294.984
293.996
300
300
300
300
294.301
300
294.082
294.049
294.173
293.785
300
297.169
300
298.579
250
300
297.311
298.915
300
300
300
293.018
300
300
300
289.793
300
300
300
300
300
300
300
300
300
300
300
298.765
300
300
297.797
300
300
299.928
300
295.123
295.852
300
300
300
300
299.664
300
298.724
300
298.536
299.999
299.998
296.139
300
300
300
300
299.993
298.135
299.971
300
300
300
300
300
299.961
299.028
300
300
289.102
299.857
300
300
298.192
295.705
300
300
300
300
298.476
300
300
298.688
300
299.943
298.782
300
300
300
300
295.505
299.997
299.965
299.006
291.39
300
300
298.047
300
296.168
300
300
300
299.924
298.184
298.76
298.461
298.518
300
250
300
299.695
300
300
300
300
300
299.994
300
291.79
300
300
299.859
300
300
296.028
299.259
299.79
299.636
300
294.701
296.406
300
299.994
300
299.929
294.643
297.245
300
299.586
297.47
300
299.006
299.574
300
292.942
300
299.998
299.621
300
300
294.62
297.444
297.817
300
300
300
300
299.569
299.42
298.946
300
300
297.672
300
300
296.417
300
298.252
298.047
300
300
298.048
298.541
298.384
298.383
300
296.536
298.637
300
297.857
299.432
300
300
300
299.853
291.578
300
300
293.937
300
298.921
294.669
300
299.27
293.727
298.614
300
300
298.234
300
300
294.26
299.587
296.697
298.528
299.998
300
300
300
298.419
299.671
300
299.712
300
293.675
299.999
294.509
292.726
299.54
294.376
292.515
294.97
298.241
298.023
250
299.737
300
297.954
298.897
300
300
298.168
300
299.651
299.999
299.072
300
298.764
300
300
287.491
300
297.722
300
300
288.452
299.999
299.376
294.673
297.888
300
300
300
300
300
250
300
300
300
294.526
300
297.215
300
300
300
300
295.678
300
300
293.658
299.96
299.998
299.845
293.531
300
300
299.935
298.078
298.525
300
296.644
300
293.507
294.799
299.374
300
293.993
299.391
299.996
299.699
294.564
297.88
298.208
297.239
296.428
300
298.273
300
296.326
300
300
300
298.75
300
300
300
295.626
298.856
300
300
296.741
300
300
300
292.368
294.606
300
300
299.999
298.831
298.771
300
299.97
300
298.579
295.99
300
299.942
300
300
299.991
298.927
300
300
300
299.96
298.867
300
294.902
296.57
300
300
298.326
300
300
299.993
292.838
300
299.48
300
300
299.494
299.643
299.823
300
300
300
300
300
299.983
300
300
298.301
299.852
300
295.923
299.302
300
300
299.655
300
299.999
298.794
300
299.931
299.643
299.398
294.076
297.668
300
300
297.431
300
300
296.57
297.347
300
300
299.933
300
296.704
300
297.151
300
300
300
300
297.123
300
300
300
297.329
295.462
300
297.623
300
300
299.913
300
297.445
298.253
300
297.989
300
295.866
300
299.116
300
298.971
300
297.883
300
300
300
298.771
295.863
299.434
300
300
298.113
300
300
296.17
300
298.587
300
300
299.999
300
300
300
298.465
300
298.91
299.914
299.819
300
299.998
300
300
300
297.899
300
300
300
300
300
300
300
300
297.144
300
300
300
300
300
300
300
300
300
297.005
299.999
299.995
300
300
299.585
299.591
298.983
300
299.407
300
298.768
300
300
299.99
299.08
298.597
299.993
297.262
297.153
297.367
300
296.84
299.079
300
299.995
296.695
297.411
300
300
299.983
300
297.338
297.987
300
300
299.998
299.998
299.675
295.514
300
296.828
297.651
300
299.526
299.897
299.41
299.409
300
299.99
300
300
297.142
300
299.584
300
300
300
300
300
300
300
299.412
300
298.063
300
298.86
298.784
300
300
294.945
300
300
298.776
299.155
300
299.946
300
300
298.47
293.703
299.103
300
300
299.998
300
298.607
300
300
300
299.854
300
300
297.754
300
300
300
300
294.071
300
298.143
300
300
300
296.195
299.006
295.434
296.491
300
300
300
300
300
296.779
296.819
300
300
300
300
300
300
300
300
300
300
298.744
300
300
300
300
300
300
300
300
300
299.046
298.849
299.042
300
300
300
300
299.532
297.022
300
300
300
300
299.005
297.503
296.052
297.314
300
299.999
250
299.989
300
300
300
300
299.654
295.022
299.975
299.92
300
296.663
300
300
299.44
300
300
300
300
295.855
300
298.453
295.43
300
300
300
300
300
300
300
300
298.646
299.663
298.954
298.144
299.733
298.843
300
300
300
298.897
299.221
300
300
299.035
300
299.753
298.72
300
300
298.963
299.997
299.998
300
300
298.459
300
299.98
300
300
299.997
299.985
299.998
299.868
300
300
299.01
300
299.973
300
300
293.092
299.832
299.951
300
299.294
300
300
299.104
299.718
298.201
299.197
300
297.457
300
300
300
294.11
300
300
300
298.663
300
300
300
300
300
300
300
299.024
300
300
299.999
300
300
300
300
300
300
299.438
300
298.295
300
299.492
300
299.564
296.046
300
298.754
299.494
299.609
300
300
299.366
300
298.302
300
300
300
300
300
300
300
300
300
298.988
300
300
300
299.692
300
300
300
300
300
300
300
300
300
300
300
294.545
294.454
300
300
300
299.994
300
300
300
298.35
300
291.878
300
297.382
300
300
299.381
300
300
299.864
300
300
300
300
300
300
299.174
298.482
300
300
300
296.406
300
298.128
300
300
300
300
300
295.764
299.875
299.821
299.783
300
300
299.86
300
300
300
298.1
300
300
297.908
300
300
300
300
300
300
300
300
299.861
300
299.676
299.994
276.813
300
300
296.054
300
300
300
300
300
299.342
300
300
299.902
300
299.306
298.252
299.983
299.61
300
299.369
300
300
296.956
299.987
300
300
300
300
300
300
299.667
299.91
300
299.64
299.072
298.015
250
300
300
293.221
300
299.999
295.593
300
295.889
295.966
295.841
300
300
300
300
300
300
300
300
299.996
300
295.882
299.71
300
296.096
300
299.999
299.956
291.388
300
300
292.489
299.98
300
300
299.962
299.997
300
296.724
300
299.615
300
299.711
300
297.217
300
298.209
300
300
299.955
300
300
297.337
295.661
299.994
299.983
300
298.416
299.991
300
300
298.256
300
300
300
299.051
297.641
297.991
296.083
298.789
297.134
300
299.97
299.802
297.908
300
300
298.244
300
294.2
300
300
300
300
295.592
300
300
297.916
291.74
299.916
297.965
293.137
300
299.951
297.511
300
300
300
297.84
299.517
296.951
300
297.432
300
294.978
298.082
300
300
297.382
299.595
300
300
300
299.524
299.484
299.515
279.028
300
300
300
300
300
293.836
300
300
300
298.753
296.449
300
299.991
299.956
300
299.278
300
300
296.538
299.562
294.799
300
298.319
300
298.595
298.753
298.203
300
299.586
298.711
300
300
300
300
299.658
299.362
298.634
297.595
298.332
294.774
300
294.872
300
300
300
300
300
300
300
300
299.908
299.996
300
300
299.255
300
300
300
299.999
300
299.996
300
300
300
300
298.182
300
297.332
297.114
300
297.457
300
296.869
300
300
300
300
300
300
296.815
300
299.864
300
300
300
300
300
299.93
300
300
300
300
297.605
299.629
300
297.008
300
300
300
300
300
298.029
298.118
297.226
297.884
300
300
300
299.962
300
300
300
300
300
300
299.747
300
300
299.999
300
298.577
298.655
298.123
299.445
293.772
300
300
297.818
299.976
300
297.882
300
300
300
300
292.037
299.044
300
300
300
297.783
300
300
300
299.07
298.083
299.316
300
300
300
300
300
300
300
300
300
300
300
300
300
300
298.793
300
298.922
298.727
297.757
298.574
300
300
299.03
298.924
300
299.947
299.998
299.172
299.973
300
299.345
297.767
296.02
298.816
298.179
300
299.559
299.461
297.341
298.738
298.65
300
300
299.965
299.974
300
298.942
299.983
298.894
299.312
299.994
300
300
299.166
299.825
299.959
300
300
299.692
300
300
299.986
300
300
300
300
300
300
300
297.735
299.728
299.416
299.367
300
298.671
300
299.994
300
299.135
298.115
298.871
299.999
299.332
300
300
298.783
300
296.233
296.31
300
300
298.854
300
300
300
299.767
300
297.02
300
295.522
298.722
299.999
300
299.999
299.677
300
300
299.946
300
299.902
298.585
300
300
296.508
300
300
300
296.841
298.476
300
299.085
300
300
300
300
300
300
300
300
300
300
299.649
300
299.746
299.939
299.999
300
294.656
297.507
300
300
300
298.535
297.735
300
300
295.492
297.768
299.123
295.674
298.86
300
300
300
299.43
300
299.999
299.779
300
299.998
297.256
300
300
296.274
290.997
299.645
297.429
296.864
299.993
299.859
300
300
296.747
300
300
300
300
300
296.212
299.995
300
300
300
300
300
300
300
296.523
294.48
300
300
300
300
299.834
300
300
299.308
298.938
300
299.943
300
300
299.907
300
296.985
300
299.316
299.233
300
299.999
300
300
300
299.548
297.489
299.554
299.993
298.491
298.244
300
288.452
300
299.179
299.984
300
300
300
300
299.978
299.7
299.726
299.824
300
299.673
299.716
299.763
298.896
299.801
300
299.564
299.861
300
300
290.109
299.346
299.415
300
300
299.999
300
298.86
300
299.623
300
300
299.061
300
296.74
297.855
299.137
300
300
299.996
300
299.995
299.309
297.461
299.458
300
299.454
299.999
299.995
299.982
295.815
290.161
300
299.997
300
299.998
299.994
300
300
299.949
300
298.644
299.127
300
297.708
299.721
294.842
299.978
300
298.468
299.577
300
299.594
295.833
298.021
298.646
300
300
298.034
300
300
298.064
298.221
300
300
300
300
300
299.999
300
300
299.16
299.917
300
299.035
300
300
299.999
297.727
298.165
300
300
299.998
299.029
299.918
299.989
300
300
295.58
300
299.143
300
300
300
298.722
299.198
250
300
296.94
295.333
299.139
300
299.25
298.965
298.91
297.282
300
298.084
300
300
300
300
300
300
300
298.798
299.989
299.838
300
300
300
300
300
298.804
300
300
293.095
300
298.44
299.665
300
296.049
299.341
297.977
300
300
300
300
300
299.986
300
300
298.051
297.91
300
296.996
300
296.541
300
297.806
300
297.868
300
300
300
300
295.844
300
300
300
300
300
300
300
299.119
300
295.785
295.922
300
300
300
300
300
293.25
300
300
300
300
300
296.715
296.309
300
300
300
300
300
300
300
300
296.202
300
300
300
300
300
300
299.827
296.704
300
300
300
300
300
297.69
299.625
300
296.916
300
300
300
300
300
300
300
300
300
300
300
300
297.6
300
299.674
300
300
300
300
300
300
296.977
300
300
300
300
300
296.464
300
300
300
300
300
300
300
300
300
300
300
300
300
300
300
300
300
300
300
300
300
298.51
300
300
300
300
299.421
300
300
300
300
300
300
299.609
298.922
300
300
298.215
300
299.891
300
298.628
298.543
300
298.494
300
298.44
300
300
300
300
300
300
300
300
300
300
300
300
300
300
300
300
300
298.181
298.245
300
300
298.592
300
299.695
300
299.75
300
300
300
300
300
300
300
300
300
300
300
300
300
300
300
300
300
300
300
300
300
300
300
299.864
300
300
300
300
299.999
300
300
300
300
300
300
300
300
300
300
300
300
300
300
300
300
299.911
300
300
300
300
300
298.558
300
300
299.016
298.152
298.863
296.38
296.6
299.995
300
298.314
298.59
300
297.918
300
300
298.484
292.857
298.338
300
298.067
293.717
298.93
298.445
299.997
300
299.765
300
297.867
298.266
296.832
298.628
298.645
298.062
296.102
295.988
296.283
300
300
300
289.713
298.236
300
300
300
300
300
300
299.698
300
300
300
299.595
299.999
299.13
300
299.946
295.162
296.069
300
300
300
296.54
300
300
299.999
300
300
299.799
300
300
300
296.263
300
300
300
300
296.34
300
300
300
299.962
300
300
300
300
295.772
295.691
300
300
300
300
299.968
300
300
300
300
300
300
300
300
290.722
250
296.643
300
300
300
300
300
298.29
300
300
299.228
300
296.853
298.013
295.132
300
296.868
296.989
300
300
300
299.999
300
300
295.022
299.962
299.689
300
299.829
297.455
299.639
300
300
300
300
300
299.453
300
300
299.863
300
300
297.714
300
300
300
300
299.154
300
296.82
300
300
299.314
298.495
299.427
300
295.768
300
300
300
299.287
299.997
299.468
300
299.964
300
300
299.46
299.358
300
299.966
299.987
299.996
296.269
299.694
295.273
300
300
299.846
293.187
299.136
299.181
299.727
297.639
298.604
297.523
299.744
299.224
300
299.762
299.979
300
295.252
300
297.04
297.397
299.388
300
299.998
300
298.508
299.499
299.976
299.112
299.582
300
298.248
300
295.176
296.973
299.998
300
299.994
299.53
300
298.283
299.964
298.204
300
295.421
299.999
299.946
297.165
297.585
295.224
294.327
299.993
300
297.167
296.7
300
299.55
295.202
300
300
300
298.098
300
300
300
300
298.803
299.258
300
300
300
300
300
299.69
299.781
299.263
295.114
299.45
299.809
298.904
295.813
300
300
299.879
300
299.999
299.948
298.423
298.882
298.749
300
296.686
300
300
296.224
298.712
299.4
299.012
300
300
300
299.68
300
299.52
299.746
297.86
299.917
299.486
294.865
300
299.533
300
300
299.98
299.988
291.085
300
300
299.269
298.51
297.486
292.661
300
299.375
299.954
300
298.917
293.351
300
298.273
298.562
300
298.715
298.744
295.826
298.837
296.246
299.591
299.965
298.696
299.667
298.842
300
300
297.114
299.51
298.391
297.985
298.175
298.269
300
299.914
296.01
298.839
297.558
298.728
298.707
298.293
298.277
298.351
297.321
299.373
298.255
295.75
300
295.632
295.849
299.73
300
300
299.697
298.094
300
298.356
296.839
299.997
297.173
300
299.83
299.088
298.99
298.75
298.935
299.131
300
299.999
299.96
300
297.55
300
299.194
299.999
299.979
299.233
300
300
300
300
300
300
298.971
300
299.982
300
297.734
300
299.424
299.999
300
298.799
298.693
299.926
299.99
296.548
297.814
299.994
298.502
299.999
300
299.999
295.829
299.628
300
299.326
299.638
297.11
299.991
300
297.305
297.75
294.905
299.284
299.766
299.498
299.293
300
299.269
299.714
299.513
299.793
299.747
299.941
296.393
300
299.039
299.835
295.921
299.541
299.325
295.407
296.126
298.715
296.324
296.34
299.026
299.251
299.759
300
296.935
293.708
298.794
298.234
299.994
299.818
299.484
297.979
298.871
296.002
300
299.532
300
300
299.208
298.753
298.665
295.63
295.513
298.527
295.583
299.287
299.687
299.996
298.766
299.997
300
299.976
299.139
298.424
299.203
299.429
297.909
296.671
298.584
297.627
298.293
299.796
297.626
299.937
298.502
299.74
299.861
299.947
299.962
296.342
299.819
298.676
299.789
298.347
300
298.239
300
298.099
298.172
296.869
297.232
296.622
300
296.103
296.156
299.603
299.224
297.172
298.417
298.328
298.483
298.44
299.99
299.77
299.304
299.668
299.532
300
300
299.412
299.015
300
299.996
300
300
299.721
300
300
300
300
299.943
300
299.295
296.828
299.95
298.874
299.89
300
300
295.771
300
300
297.263
298.238
298.53
296.982
294.606
299.95
300
298.373
298.645
298.389
300
297.068
298.44
297.913
299.877
295.191
298.664
298.559
297.611
295.929
294.147
297.827
295.614
297.241
300
299.244
299.05
298.823
299.105
298.509
299.236
300
297.279
298.138
297.474
298.381
299.583
299.766
299.103
299.879
295.842
299.987
295.891
298.741
299.679
300
299.937
298.632
295.719
295.826
299.598
299.384
298.759
299.853
296.176
299.732
299.898
299.846
295.641
298.546
299.868
299.526
299.329
298.025
299.99
300
299.997
295.593
295.953
295.654
295.53
300
295.88
298.509
297.547
295.633
295.364
299.043
299.922
298.599
295.956
300
297.399
295.885
298.742
299.158
299.872
300
299.78
299.602
274.772
299.392
296.179
299.995
299.121
299.993
300
300
299.332
298.283
295.905
296.809
300
300
298.583
296.671
299.663
296.888
300
299.971
297.717
297.846
297.983
299.915
297.458
298.928
299.999
300
296.254
300
300
295.768
300
296.101
300
300
295.837
300
297.171
295.351
297.627
296.795
299.297
297.987
295.558
296.231
300
300
296.543
298.444
298.209
299.996
296.418
298.099
299.619
299.999
298.621
297.565
299.996
298.772
297.477
297.524
299.918
299.778
299.172
297.679
295.026
298.39
299.864
297.983
299.684
299.21
299.993
298.793
299.036
298.853
296.301
299.993
299.898
299.978
299.988
296.284
298.203
299.936
299.344
297.631
298.423
300
293.76
297.626
299.25
296.348
299.776
299.888
297.01
298.26
299.427
300
296.275
300
298.714
299.646
299.999
299.804
299.432
298.656
298.694
300
299.926
296.061
300
297.535
296.763
300
293.794
298.692
297.905
298.625
300
294.553
296.011
298.546
296.653
297.632
294.116
298.301
297.082
296.23
299.999
298.783
299.677
299.597
299.034
297.787
294.269
294.433
299.844
299.815
300
298.617
296.459
299.362
299.475
299.651
297.523
300
298.941
296.414
297.378
296.112
298.28
299.82
299.235
297.711
297.6
299.181
298.415
299.733
297.468
298.788
299.998
299.726
299.787
299.739
299.858
297.739
300
299.031
295.978
296.914
297.039
297.147
300
293.951
300
300
297.099
299.938
300
299.988
299.209
300
299.547
297.067
299.997
299.761
299.975
298.265
295.984
298.624
299.999
299.104
296.773
299.704
300
299.989
299.992
300
300
297.335
299.97
297.129
299.789
300
299.94
294.308
299.962
299.99
296.671
299.838
299.77
299.547
299.877
297.638
299.465
299.808
295.744
299.063
298.497
298.832
299.521
298.01
295.92
299.947
299.886
299.93
299.864
299.56
300
300
299.978
300
299.293
300
300
298.858
299.925
299.578
299.256
296.626
298.673
298.003
299.901
299.281
297.919
296.552
294.871
299.547
300
298.715
300
300
299.972
298.302
295
299.83
298.818
299.999
298.393
299.446
299.431
299.204
299.088
298.78
298.43
297.978
298.641
298.648
300
298.951
294.476
300
299.998
300
300
299.33
300
300
299.387
299.26
300
299.854
299.848
299.998
299.956
299.577
299.992
299.947
300
299.593
299.832
299.676
299.401
297.184
300
299.736
300
299.946
299.387
297.828
297.066
299.603
300
297.415
299.963
299.933
297.466
298.423
299.466
299.313
298.378
299.952
298.949
297.159
298.681
297.456
298.378
297.328
297.838
300
297.038
300
297.15
300
300
300
300
299.622
298.549
299.285
297.479
298.358
300
299.997
299.887
294.205
297.041
295.61
297.572
298.386
298.757
299.561
300
298.225
298.185
298.111
299.597
250
299.809
300
297.068
299.793
298.753
300
299.515
299.999
298.768
300
299.861
298.128
300
297.16
299.993
300
300
300
299.748
297.425
298.875
297.633
299.999
298.191
300
296.388
299.212
295.837
296.738
299.274
300
299.927
300
298.337
300
297.451
298.37
299.974
300
299.808
300
298.46
300
299.223
300
296.204
300
299.688
298.491
300
300
298.582
298.784
299.76
297.732
298.524
296.437
298.277
298.018
300
298.093
300
300
295.607
300
298.661
300
299.166
300
299.67
300
300
299.979
300
299.116
300
300
298.348
296.78
297.524
295.476
300
298.82
300
300
298.901
299.902
296.134
299.88
300
298.039
299.45
298.803
298.858
300
298.583
299.919
296.002
300
300
300
297.554
297.706
299.834
298.735
299.996
299.85
299.823
299.845
300
300
300
300
298.436
300
300
300
299.992
296.853
299.204
296.042
296.231
297.978
299.715
299.263
300
299.998
299.092
295.73
297.003
294.425
300
300
299.979
298.512
296.725
299.956
299.947
298.402
300
300
298.736
296.575
298.956
296.722
299.971
299.996
299.904
295.192
296.337
298.447
299.997
299.989
297.93
300
298.406
299.98
300
300
299.629
296.236
296.488
299.994
300
298.252
296.433
299.928
300
299.998
294.76
298.958
299.41
300
299.998
300
300
300
300
300
300
300
300
300
300
300
300
299.998
300
300
300
298.341
300
299.456
299.89
300
299.982
300
300
300
300
300
300
299.774
300
300
299.927
300
300
300
299.947
300
300
300
300
300
299.979
300
299.457
298.982
300
299.28
299.996
300
300
300
299.992
300
300
300
300
299.357
300
299.987
299.998
299.932
300
298.702
299.997
300
300
300
298.523
300
300
300
298.312
298.443
299.965
298.104
300
300
300
298.341
299.608
300
300
300
300
300
300
300
299.759
300
300
300
298.223
298.056
297.841
299.456
300
300
299.591
300
300
300
300
299.986
299.831
300
300
300
300
300
300
300
299.953
300
300
300
300
299.863
300
299.999
300
299.871
300
300
300
300
300
300
300
300
300
300
298.544
300
300
299.632
299.802
300
300
300
300
299.967
300
300
299.642
294.994
299.817
300
300
298.982
299.995
299.728
300
299.977
300
300
300
299.999
299.999
299.995
299.991
300
300
299.973
300
300
300
300
299.996
300
300
300
300
300
300
300
299.902
300
300
300
300
299.621
299.112
299.844
300
300
299.323
300
300
299.261
299.879
300
297.591
300
299.622
298.991
300
300
300
300
300
299.947
300
300
300
300
300
300
298.841
300
298.657
300
300
300
299.995
299.944
300
296.426
300
300
299.988
300
299.984
297.878
299.578
299.835
300
299.996
300
300
299.837
299.596
300
299.79
300
300
299.336
300
300
300
300
300
300
300
299.693
300
299.009
300
300
300
299.879
299.741
300
300
299.974
300
300
300
299.998
299.989
300
300
300
300
300
300
300
300
300
299.955
300
299.947
300
300
300
300
299.982
300
300
300
300
300
297.545
300
300
300
300
300
300
300
300
300
300
300
298.896
300
299.972
298.889
300
299.947
299.119
299.986
300
300
300
300
299.308
300
300
300
299.994
300
300
300
300
299.986
300
299.834
297.466
300
300
300
300
298.849
299.905
300
300
300
300
298.96
298.137
300
298.475
300
297.883
298.177
300
300
298.792
300
300
299.992
300
300
299.594
300
300
300
299.004
298.862
300
300
299.39
300
299.234
300
300
300
300
300
300
300
299.854
299.854
300
300
300
300
300
300
299.907
300
300
300
300
300
300
299.854
300
299.362
300
299.481
300
300
300
300
299.615
300
300
298.508
300
300
300
300
300
300
300
299.218
300
300
298.002
298.735
300
300
300
300
300
299.723
299.708
300
300
300
300
300
300
300
299.987
300
300
300
300
300
300
300
300
299.996
299.998
300
299.227
300
299.01
299.995
300
300
300
299.959
299.991
300
300
300
300
300
300
300
299.528
300
299.404
300
300
300
300
299.984
300
299.845
300
299.93
299.854
299.917
300
299.592
300
299.934
300
300
300
299.867
300
300
299.924
300
300
300
300
300
300
300
299.933
300
299.347
300
300
300
300
300
298.8
300
300
300
300
300
300
300
298.946
300
299.023
300
300
300
300
300
300
300
300
300
300
300
300
300
300
300
300
300
300
300
300
300
300
300
299.96
300
300
300
300
300
298.552
300
300
300
299.835
299.841
299.987
300
299.167
299.996
300
299.999
299.988
299.354
299.998
300
299.732
300
300
299.476
300
299.246
300
300
300
300
300
300
299.932
300
300
299.856
300
300
299.998
299.787
300
299.302
300
298.399
299.989
300
299.997
299.731
300
299.434
300
300
300
300
298.814
299.771
299.655
297.513
300
300
300
299.478
300
299.612
298.43
300
300
300
300
298.449
300
299.996
300
300
300
300
300
300
300
300
300
298.122
299.276
299.086
300
298.441
300
300
300
300
300
300
300
299.999
300
298.857
300
300
300
298.806
300
300
300
298.808
300
300
298.839
298.027
299.989
300
300
300
300
300
298.662
299.39
300
298.464
300
300
300
300
300
300
300
300
300
292.723
300
299.525
299.917
300
300
300
299.76
300
300
300
300
300
299.845
300
300
299.861
300
300
300
300
299.999
300
300
300
299.999
300
299.998
299.868
300
300
300
300
300
299.995
300
300
300
300
300
300
300
300
300
300
300
300
300
300
294.913
300
300
300
298.887
300
300
300
299.279
299.638
300
300
299.157
300
300
299.999
300
300
300
300
299.055
300
300
300
300
300
300
300
300
300
300
300
300
300
300
300
299.937
300
298.882
299.999
300
299.98
298.44
300
300
300
300
300
300
300
300
300
300
300
300
299.317
299.686
300
300
300
300
299.08
299.887
300
300
300
300
299.403
299.732
299.643
298.962
300
300
300
300
300
300
300
300
300
300
300
300
300
300
300
299.982
300
299.986
300
300
300
300
300
300
300
300
250
300
300
300
300
300
300
300
300
300
300
299.999
300
300
300
300
299.999
300
300
300
300
300
300
300
300
300
300
300
300
300
300
299.996
295.939
300
300
300
300
300
300
300
300
298.411
300
300
300
300
300
300
299.567
299.433
300
300
300
300
299.586
300
300
299.611
300
300
299.543
300
300
300
300
300
300
299.826
271.624
299.88
299.988
300
299.964
300
300
300
300
300
300
300
300
300
295.983
299.939
300
299.988
300
300
300
300
300
300
300
299.103
300
300
300
300
300
299.683
300
300
300
300
300
294.06
300
294.125
300
300
300
300
300
297.542
298.2
300
300
300
294.219
300
300
300
300
300
300
300
299.753
300
300
300
299.933
300
300
300
300
300
300
300
295.12
299.999
294.225
299.924
299.548
300
294.69
298.378
300
300
299.739
300
300
300
300
295.17
294.595
300
300
300
300
300
300
296.406
299.969
300
300
299.766
300
300
300
300
300
300
300
300
300
299.673
299.683
300
300
300
300
294.053
300
300
300
299.219
300
300
300
300
294.207
300
300
298.486
300
297.039
300
300
300
300
300
300
300
300
300
299.804
300
300
300
294.314
300
300
300
295.442
300
300
300
297.782
300
299.092
300
299.999
300
298.45
298.539
300
300
299.296
300
300
300
296.293
300
300
300
300
300
295.971
296.339
300
294.587
300
300
300
300
300
300
300
300
300
300
300
300
300
300
300
293.993
300
300
300
300
300
300
294.008
300
300
300
300
300
300
300
300
300
300
300
300
300
300
300
300
300
300
300
300
300
300
300
300
298.315
294.224
300
300
300
300
300
300
300
300
297.761
300
300
300
300
300
300
300
300
294.154
300
300
299.999
300
294.352
300
300
298
300
300
300
295.062
300
300
300
300
300
300
300
300
300
300
300
300
300
300
300
300
295.31
300
297.313
300
300
300
300
300
300
300
300
300
300
300
300
300
300
300
300
300
300
300
297.719
300
300
300
300
300
299.985
300
300
300
300
300
300
299.996
300
300
300
300
300
300
300
300
300
300
300
300
300
300
300
300
300
300
294.86
300
300
298.009
300
300
300
300
300
300
300
300
300
300
300
300
300
300
300
300
300
300
300
300
300
300
300
299.993
300
300
300
300
300
300
300
300
300
300
300
300
300
300
300
300
300
300
300
300
300
299.004
300
299.935
300
299.995
300
286.86
298.049
300
300
300
300
300
300
300
300
299.988
300
300
300
300
299.997
300
300
300
300
297.234
300
300
300
300
300
300
281.356
300
299.752
300
299.998
299.99
300
300
300
300
300
300
300
300
296.663
292.681
300
299.863
299.869
295.26
300
300
300
300
300
300
300
300
300
300
300
300
300
299.979
300
300
300
300
300
299.763
299.844
300
300
298.806
300
300
300
300
300
300
300
300
300
300
300
300
300
300
300
299.104
300
299.546
286.552
300
300
300
300
300
300
300
300
300
300
298.207
297.835
300
300
300
300
300
294.049