/*--------------------------------*- C++ -*----------------------------------*\
| =========                 |                                                 |
| \\      /  F ield         | OpenFOAM: The Open Source CFD Toolbox           |
|  \\    /   O peration     | Version:  2312                                  |
|   \\  /    A nd           | Website:  www.openfoam.com                      |
|    \\/     M anipulation  |                                                 |
\*---------------------------------------------------------------------------*/
FoamFile
{
    version     2.0;
    format      ascii;
    arch        "LSB;label=32;scalar=64";
    class       volVectorField;
    location    "0.1";
    object      U;
}
// * * * * * * * * * * * * * * * * * * * * * * * * * * * * * * * * * * * * * //

dimensions      [0 1 -1 0 0 0 0];

internalField   nonuniform List<vector> 
32842
(
(-7.5787e-06 -2.28837e-07 -4.98029e-06)
(0.873668 0.00416859 -0.353931)
(-1.94146e-14 -1.09437e-13 -2.52612e-13)
(-1.59654e-12 2.06821e-13 5.78533e-13)
(2.3501e-13 3.98237e-13 3.17675e-13)
(-2.08453e-13 2.33442e-13 6.9876e-13)
(-10.7738 15.8021 2.15746)
(-9.14006 -26.3356 3.40148)
(7.22541e-13 -2.3327e-14 1.08856e-12)
(-9.2648e-14 3.09375e-13 1.24582e-12)
(0.840237 28.4537 -14.1451)
(5.96719 -21.5749 -7.12384)
(2.17201e-13 -4.48863e-13 -2.3342e-13)
(6.19776e-13 -2.19767e-13 7.75551e-13)
(-1.50339e-13 5.00833e-13 -3.8413e-13)
(-0.00115088 -0.0119539 -0.00127799)
(2.44616e-13 9.30338e-13 1.57802e-13)
(-1.26311e-14 -3.02519e-13 -2.39786e-13)
(-0.000107497 -4.84495e-05 -4.87565e-05)
(-2.91734e-13 6.19944e-13 1.25958e-12)
(2.72668e-13 -4.3686e-13 3.31761e-13)
(4.44815e-13 -4.58395e-13 1.28607e-13)
(4.28598e-13 5.46234e-14 -3.99916e-13)
(7.31115e-13 1.61343e-12 4.23265e-13)
(-9.95882e-14 3.80721e-13 7.84488e-13)
(-1.37351e-13 1.17415e-13 -4.1181e-13)
(4.41655e-14 -1.25377e-12 -1.41341e-12)
(-3.76027e-13 -2.24077e-13 1.13515e-12)
(18.2372 2.24721 -1.04851)
(3.03095e-14 -2.23045e-13 -8.75694e-13)
(19.3126 2.47469 -6.38292)
(-4.44091e-14 -4.38658e-13 -8.89587e-14)
(-1.64005 -19.0841 -1.43992)
(1.51819e-11 8.31305e-13 -2.24696e-11)
(-6.53941 -18.9596 -4.02714)
(-1.78753 -16.0129 9.45409)
(-6.6314e-11 -6.03697e-11 5.32467e-11)
(2.67819e-12 -4.42899e-12 -8.15829e-13)
(-1.16572e-09 2.09317e-08 -1.93143e-08)
(-1.93952e-07 -2.00185e-07 -2.16982e-08)
(-1.01871e-13 -1.44007e-13 -1.1084e-14)
(-2.6913e-13 -3.28231e-13 -5.76024e-13)
(1.59531e-12 2.30467e-13 1.02041e-13)
(5.16597e-13 2.10234e-13 2.94683e-13)
(0.000217018 0.000324661 0.000356264)
(1.05743e-13 -6.27066e-14 -3.49069e-13)
(-30.3185 -0.807682 3.29151)
(-1.7618e-07 2.27566e-07 3.9846e-07)
(-5.21915e-14 -8.99666e-13 8.89765e-14)
(-15.4432 -2.07527 -0.202001)
(3.82423 -18.6994 -1.41303)
(3.73989e-13 -2.01925e-13 8.09892e-13)
(2.25252e-13 -1.42116e-13 -1.39726e-12)
(20.4864 1.18928 -0.184006)
(-5.16903e-13 5.88782e-13 -2.84983e-13)
(-1.48864 -2.1901 3.86766)
(1.20303e-12 8.083e-14 -7.57994e-13)
(0.425798 16.3775 2.01885)
(2.97575e-13 3.45235e-13 1.08847e-13)
(6.67643e-14 2.13778e-13 -1.14962e-13)
(0.381722 -19.5239 -1.35226)
(-1.59929e-08 -4.57757e-08 3.40411e-08)
(3.78799e-13 -5.66016e-13 7.42021e-14)
(-1.28874e-13 -5.53899e-13 1.282e-13)
(-1.4767e-07 -1.05265e-08 -9.41663e-07)
(-23.5346 0.94544 -0.995356)
(6.96264e-13 -1.60238e-13 -6.92898e-14)
(-1.10592e-10 -5.62976e-11 -5.72338e-10)
(6.91805e-13 6.34375e-13 1.82811e-13)
(0.464348 0.15843 0.59527)
(9.06828e-13 1.25466e-13 -2.58626e-13)
(-10.8741 5.11661 0.69218)
(5.7555e-13 -8.43866e-14 -4.31151e-13)
(2.61182e-13 -2.6727e-13 8.57991e-13)
(-5.70608e-14 7.95278e-14 3.81394e-13)
(1.85817e-05 1.82218e-05 8.15788e-06)
(16.2131 2.89338 -1.64405)
(-4.76451e-13 -4.23571e-13 2.91837e-13)
(-2.0858e-13 4.84768e-14 -1.0827e-12)
(2.85755 -29.1093 -0.326912)
(-9.43727e-13 -6.34201e-13 3.80487e-13)
(-1.27438e-13 -2.99197e-13 3.26595e-14)
(-1.19361e-13 -3.7056e-13 3.23107e-13)
(-3.8528e-13 2.80325e-13 3.67445e-13)
(9.16888e-13 4.56671e-13 7.13285e-13)
(-6.53472e-14 -1.27594e-13 3.70506e-13)
(5.20492e-13 6.13445e-13 4.9315e-13)
(1.8939 0.958585 3.42689)
(-0.841069 -19.4614 -2.16605)
(1.48369e-13 1.19431e-13 -7.74183e-13)
(5.02117e-13 -2.68529e-13 9.33656e-13)
(-4.23568e-13 -5.98589e-13 6.82756e-14)
(-17.2929 -0.351372 5.81822)
(-3.57997e-13 -3.85837e-13 1.72658e-13)
(1.13517e-12 -9.22217e-13 3.7045e-14)
(-5.24899e-09 -1.70155e-08 6.04201e-09)
(8.90054e-14 -6.68957e-13 -2.40102e-13)
(-7.23959e-13 7.59496e-14 -1.16546e-12)
(1.21213e-12 -2.19581e-14 6.651e-13)
(-1.21188e-12 -7.2156e-13 1.09829e-12)
(-1.27571e-12 -1.67678e-13 -2.35039e-13)
(-3.05953e-10 -2.38208e-10 1.7725e-10)
(-1.52676 0.779249 0.120861)
(14.0177 1.16447 2.17573)
(-2.44034e-13 5.77163e-13 5.39117e-14)
(5.42797e-13 -5.89064e-13 6.08222e-13)
(0.010666 20.6246 3.99996)
(-0.636352 0.137961 -0.637163)
(2.37222e-06 1.76292e-06 2.1136e-07)
(-0.105246 0.264782 0.337033)
(3.77105e-13 -5.52842e-13 -6.67841e-13)
(-7.08788e-13 7.76842e-13 -5.15351e-13)
(-0.030848 -27.8253 1.88616)
(-9.28286e-15 -3.26047e-13 8.68737e-14)
(-1.53468 -0.477885 0.735677)
(6.35079e-14 -1.54989e-13 -1.14544e-13)
(-5.00973e-13 -1.22499e-13 1.06215e-12)
(6.15134 -3.46014 -11.7082)
(-1.08607 -0.131749 0.166862)
(-4.77157e-08 1.50706e-08 5.71804e-08)
(2.21495e-13 -3.94469e-13 -5.25827e-13)
(-8.14856e-13 3.37362e-13 -3.31679e-13)
(1.56387 23.2978 0.68753)
(-4.41015e-13 2.21692e-13 -7.29508e-13)
(-0.629832 -0.484804 0.985427)
(3.99907e-13 4.08881e-13 -5.62017e-13)
(2.2491e-11 -1.32838e-10 7.08428e-11)
(2.11965e-11 -2.53585e-12 -1.62574e-11)
(-3.34579 26.4675 0.586713)
(4.44313e-13 -3.74944e-14 5.19328e-13)
(1.92862e-14 -5.83142e-13 7.41531e-13)
(-2.19569 -0.591393 1.07294)
(0.000892329 -0.000670181 -0.000327707)
(-0.0010982 -0.000907842 0.000125161)
(0.000334844 2.35843e-05 -4.17396e-05)
(-0.0139208 0.013068 -0.00715461)
(-3.89717 -0.188649 1.07815)
(1.58838 -1.61747 4.77907)
(2.02508e-07 -4.35794e-07 3.15383e-07)
(-6.89512e-05 -0.000211499 1.46442e-05)
(-3.21594e-13 3.52528e-13 -7.78149e-13)
(-1.17946e-12 -4.497e-13 1.7859e-13)
(-3.16538e-13 1.33408e-13 1.02538e-12)
(-1.30129 -4.68738 4.21039)
(0.000182813 -4.45984e-05 -0.000251327)
(-1.46081e-15 -9.1356e-13 4.91261e-13)
(25.9778 9.53637 -1.31252)
(1.1242e-12 6.53201e-15 -3.13135e-14)
(3.9526e-13 1.76178e-13 -4.64898e-13)
(-3.0113e-13 1.34959e-12 7.50936e-13)
(-0.44797 -1.03244 2.07161)
(-0.135049 0.0433683 0.195477)
(1.09313e-12 8.11673e-14 -8.4317e-13)
(-0.51439 29.6222 -0.370962)
(-0.0297857 0.0593058 0.0371057)
(-2.40936e-13 5.2199e-13 -4.47974e-15)
(1.29409e-13 -4.51842e-13 5.04996e-13)
(3.22152e-13 -1.21557e-12 -1.58008e-12)
(-6.75695e-05 1.68952e-05 -6.0547e-05)
(-6.42897e-13 5.21482e-13 1.07022e-14)
(-2.51419e-05 1.12279e-05 -8.76455e-06)
(-9.6176e-14 -9.33419e-13 -4.42475e-13)
(1.64562e-13 1.09739e-13 2.3569e-13)
(5.88307e-13 4.77485e-13 5.77491e-13)
(-0.0137979 0.117837 -0.0701606)
(-3.62178e-13 1.1829e-12 -4.16216e-12)
(-5.06459e-14 5.48485e-13 -7.21627e-13)
(1.52588e-13 -2.93592e-14 -3.44495e-14)
(4.61963e-08 -3.65146e-09 4.7921e-08)
(21.5966 -1.61058 4.13007)
(1.16928 1.22187 4.87614)
(1.12411e-06 -5.56736e-07 -1.31972e-06)
(-8.47302 -3.69227 12.0565)
(-4.37414e-13 -2.80191e-13 -6.37398e-13)
(5.60514e-13 2.92626e-13 -3.70479e-13)
(-5.76488 10.6165 14.0851)
(2.7557e-13 -5.76723e-13 -4.47355e-13)
(-0.744439 -0.683044 0.915739)
(1.01519e-12 -2.18906e-13 4.46727e-13)
(3.33266e-13 -3.64e-13 -2.44114e-13)
(-1.41219e-09 -2.12134e-09 1.58263e-09)
(1.00879e-13 4.5313e-13 -8.81133e-13)
(-1.05714e-13 -7.67853e-13 -6.53498e-13)
(-1.43539e-13 8.8223e-13 -1.13512e-12)
(-2.09335e-13 2.22417e-13 -4.05325e-13)
(-3.09959e-13 1.01519e-13 -2.64402e-13)
(2.98431e-06 4.20479e-06 1.03502e-05)
(1.71705e-13 -2.55841e-13 5.8571e-13)
(7.26867e-07 -1.5537e-08 -5.19454e-08)
(9.15698e-15 2.47631e-13 9.43806e-13)
(4.45378e-13 6.88712e-15 -3.15943e-13)
(0.667764 0.590823 0.472695)
(-4.68679e-14 -4.56663e-13 -1.56021e-12)
(-3.5467e-13 3.91508e-13 -3.13993e-13)
(6.44893e-14 8.84943e-13 -3.16918e-13)
(-1.6792e-10 -1.28545e-09 -2.94807e-10)
(-5.97536e-13 1.22938e-13 3.70659e-13)
(5.08392e-11 -4.66842e-11 -1.0536e-10)
(-3.06113e-13 -4.73849e-13 4.85086e-13)
(-2.02228e-13 1.71393e-13 1.59433e-13)
(-6.51828e-09 1.0654e-09 2.91502e-09)
(-2.33658e-12 3.7916e-12 -2.2713e-10)
(-0.311474 -0.704793 2.31522)
(-23.4112 1.68756 -0.0798264)
(-0.707974 19.799 -0.832614)
(-0.057077 -0.0621537 -0.0299634)
(-2.36376e-07 2.65201e-07 1.5636e-07)
(1.06813e-12 -5.84089e-13 -6.04225e-13)
(-8.8775e-13 1.11055e-12 -4.29476e-13)
(-2.43382e-07 -2.81541e-07 -1.67527e-07)
(-1.1799e-05 -2.68019e-05 -1.69671e-05)
(-0.0139164 -0.0121275 0.0196925)
(-1.4055 4.26068 14.7987)
(-1.02723 3.91132 9.82928)
(-5.78358e-13 -4.72291e-13 -5.33573e-14)
(6.28934e-13 -4.40011e-13 3.93878e-13)
(-2.12207e-08 -1.03357e-07 4.57492e-09)
(-8.96464e-08 -4.87217e-08 -3.44701e-08)
(-1.57642e-07 -1.37413e-06 -1.23873e-06)
(0.000815044 -0.016861 0.00172182)
(-3.21127 -4.47057 -4.77204)
(5.02545e-13 -7.38841e-14 -4.77598e-13)
(3.6449e-13 -1.91686e-13 1.12492e-12)
(-4.60327e-07 -3.34056e-06 -2.67904e-06)
(1.73114e-05 0.000136572 1.47936e-05)
(-0.00042681 -0.00238816 -0.0018104)
(5.87548e-13 1.83903e-13 1.71845e-13)
(6.37137e-13 7.91548e-13 -2.60774e-13)
(2.26663e-05 -1.75794e-05 -1.27603e-05)
(1.55813 -29.942 2.45487)
(-2.67929e-13 7.21091e-13 -5.69448e-13)
(-1.16034e-13 1.43094e-13 -1.02838e-12)
(6.03474e-10 -6.11892e-11 -5.56396e-10)
(-2.47731e-13 6.61997e-13 -3.42105e-13)
(-1.21633 -20.6456 10.8013)
(-5.25322e-13 1.7556e-13 4.48486e-13)
(1.78708e-13 5.3224e-13 2.31565e-13)
(0.815706 3.45807 3.34287)
(-6.98353e-09 -1.29763e-08 4.60589e-09)
(4.1015e-13 4.37122e-13 -3.34201e-13)
(1.59688 24.4049 -1.52494)
(-6.32539e-13 -1.74181e-13 -5.68461e-13)
(-4.25265e-07 -5.16521e-07 -4.12204e-07)
(28.2894 0.962916 1.84523)
(6.01571e-06 3.9463e-06 6.18341e-06)
(-2.48186e-11 9.22288e-11 2.8199e-10)
(-9.29375e-14 -1.08835e-13 -1.42213e-13)
(-7.45638e-13 2.75502e-13 1.0115e-13)
(8.85562e-14 8.05656e-13 -4.26202e-13)
(-3.48998e-13 2.41702e-13 -3.78489e-13)
(-7.7024e-13 4.08064e-13 6.13544e-13)
(4.38384e-13 -2.11097e-13 -8.40909e-13)
(0.0265787 0.0846057 -0.04494)
(9.03796e-13 2.41832e-13 -1.2354e-13)
(5.86384e-11 3.54567e-11 1.74978e-11)
(2.68274e-13 1.60958e-13 2.28874e-13)
(5.04122e-13 1.48939e-14 4.41936e-13)
(-0.0615544 3.92776 13.0357)
(-3.04044e-13 -4.72151e-13 -4.96389e-13)
(3.23237e-13 -6.18324e-13 -1.15148e-12)
(9.82858e-13 -4.11863e-13 -7.98227e-13)
(-4.90964e-13 -4.20221e-13 -5.10809e-13)
(-3.49494e-13 8.45176e-13 -1.51156e-13)
(-2.17152e-13 -6.38859e-13 6.1342e-14)
(-9.79412e-13 2.84692e-13 -2.8117e-13)
(2.37053e-13 -9.17696e-13 7.54752e-13)
(-5.61203e-13 -9.37417e-14 2.03642e-13)
(1.83152e-12 4.0415e-13 1.58871e-13)
(2.3939e-12 -2.35268e-12 1.66671e-12)
(-5.58705e-13 -1.10205e-12 1.73481e-13)
(7.06073e-14 -1.33599e-12 -2.00156e-13)
(-7.85263e-13 -2.50087e-13 5.56163e-13)
(4.44375e-13 3.47732e-13 2.81878e-13)
(-1.99773e-13 -5.14464e-13 3.62199e-13)
(-3.17385e-14 4.81393e-13 -1.35519e-12)
(0.929181 0.779447 7.6242)
(-6.73001e-08 -5.48255e-08 -3.67179e-08)
(1.94165e-08 -4.60151e-09 2.49295e-09)
(5.98568e-13 6.23259e-13 -2.52325e-13)
(1.11965e-06 8.73684e-07 -1.04471e-06)
(5.36534e-13 -4.53251e-13 -8.0971e-13)
(7.23706 14.8761 -9.86992)
(23.3695 4.77748 -1.08766)
(-1.49272e-13 5.4751e-13 -7.87701e-14)
(-5.13244e-05 -4.72206e-05 -1.4371e-05)
(-0.328735 -0.736487 1.31983)
(4.15204 10.2166 -1.0231)
(-2.32228e-13 9.20038e-13 2.93932e-13)
(-7.78646e-13 3.65271e-13 -6.60294e-13)
(-3.46506e-13 4.40167e-13 -4.04118e-15)
(4.72718 7.16207 3.19352)
(-1.6709e-13 -2.22737e-13 -2.08355e-14)
(-2.33545e-13 -1.92217e-13 -2.45207e-13)
(2.62354 16.3973 5.60962)
(1.25502 19.5205 0.47493)
(-0.211562 -0.379111 0.93)
(-3.19272e-13 1.10636e-13 4.18583e-13)
(-3.786e-13 -4.14348e-13 4.241e-13)
(-2.06428e-12 -3.05513e-11 1.61037e-10)
(-8.09781e-13 8.73904e-13 -8.4523e-13)
(-35.4676 9.73432 -7.41204)
(3.28754e-13 3.81982e-13 3.49197e-13)
(-9.84586e-13 -5.29762e-13 2.63877e-13)
(-3.45128e-13 6.38164e-13 3.30745e-13)
(-5.95392e-13 -6.3272e-13 -1.08378e-12)
(4.21374e-13 1.14076e-12 -7.19797e-14)
(-5.12085e-13 -3.41096e-13 2.61296e-13)
(8.74777e-14 1.11062e-12 -4.69743e-13)
(-4.99059e-13 -5.41706e-14 1.36674e-13)
(-2.59074e-13 1.01458e-13 -1.75788e-13)
(7.26819e-16 -4.76231e-13 7.05435e-13)
(1.20721e-12 4.69395e-13 6.91068e-13)
(1.27546e-13 3.89224e-13 4.89492e-13)
(2.29857e-13 -4.83044e-13 2.4999e-13)
(-1.24862e-13 1.40341e-15 2.94788e-13)
(6.86908e-14 2.63966e-13 2.0821e-13)
(-4.91243e-10 -1.07994e-08 -1.77902e-08)
(-14.1183 1.13598 17.7922)
(-4.73979e-13 -5.22651e-14 -1.14343e-12)
(6.13009e-13 -6.88557e-13 -1.45877e-13)
(1.92346e-09 -1.71426e-08 -8.37173e-08)
(3.03606 -19.7941 0.0465289)
(-8.83716e-15 2.39198e-13 1.03866e-12)
(5.18521e-13 -1.26609e-13 -2.54223e-13)
(3.93679e-13 -5.55274e-13 4.05603e-13)
(3.3039e-13 -3.83787e-13 -4.48726e-14)
(-9.3512e-08 -2.35034e-07 -4.00349e-08)
(3.14334e-13 8.40713e-14 -8.21217e-13)
(8.99467e-07 -3.38327e-06 -6.66284e-06)
(7.44823e-14 -2.36462e-13 -5.35302e-14)
(-2.07085e-07 7.73503e-08 -1.08438e-07)
(6.36144e-13 -7.99036e-13 6.22128e-13)
(-2.99447e-13 -8.86582e-14 -4.22621e-13)
(-1.47268e-13 -4.52487e-13 -1.04475e-13)
(5.27006e-13 7.23937e-13 6.34706e-13)
(2.68739e-13 9.30218e-14 -2.51617e-13)
(1.09808e-12 6.18007e-14 -2.81937e-13)
(-4.55857e-13 2.51582e-14 -4.248e-14)
(-3.77624e-13 -5.01099e-14 9.82981e-14)
(4.61499e-14 -7.15004e-13 -1.92399e-13)
(-2.43975e-13 -2.1545e-13 -2.83238e-13)
(-2.46632e-06 2.26894e-06 -9.71922e-07)
(-2.77698 -2.43502 1.09206)
(3.1159e-13 -2.4574e-14 -1.58237e-13)
(2.60628e-14 -4.32618e-14 -8.30334e-13)
(-2.92238e-13 3.56018e-13 -3.88808e-13)
(-3.20942e-13 -1.1252e-13 1.31107e-13)
(4.7341e-13 -3.58151e-13 -5.14646e-14)
(-4.37108e-14 -2.73414e-13 2.54404e-13)
(6.14865e-13 -1.3784e-13 -2.40515e-13)
(-0.000272809 -7.963e-05 -0.000505167)
(5.0579 19.7976 2.28202)
(-0.000119918 0.000151846 -1.03998e-05)
(9.15613e-13 -6.21959e-13 6.41859e-14)
(2.24286e-13 6.70982e-13 -3.1771e-13)
(6.5138e-13 -3.09295e-13 -3.49405e-13)
(-4.33242e-14 -2.39266e-13 2.34126e-13)
(-5.85088e-09 -2.63741e-08 -2.0081e-08)
(-3.60118e-13 1.11012e-13 1.3646e-12)
(7.41514e-09 -7.68502e-08 -6.02933e-08)
(-1.1487e-13 2.35343e-13 -4.62385e-13)
(-6.94984e-13 -2.78847e-13 5.2958e-13)
(1.33474e-12 -1.43345e-10 -3.1978e-10)
(-1.03876 20.7537 2.15005)
(-6.0583e-13 -2.4269e-13 7.68889e-13)
(-1.72579e-13 -2.41896e-13 -4.11902e-13)
(-9.73254e-14 6.92662e-13 -8.20975e-14)
(6.77128e-13 6.21296e-13 -1.72414e-13)
(2.73469 -2.59267 1.30528)
(-8.95646e-13 6.68116e-14 -2.12788e-13)
(9.80244e-14 9.41566e-14 1.39988e-13)
(-18.0726 29.282 -30.1123)
(7.21152e-14 7.77257e-13 5.59402e-15)
(-0.000133475 1.53207e-06 -0.000148679)
(2.50073e-13 -5.37492e-13 8.48333e-13)
(-2.88045e-06 -2.05578e-06 1.24578e-06)
(7.80487e-09 -1.84997e-08 -2.08233e-08)
(-7.92612e-14 -2.62137e-13 -2.20395e-13)
(-1.89918 0.716561 0.791964)
(-1.60418e-13 1.13769e-13 -7.5445e-13)
(-6.4031e-06 1.27272e-05 -3.06043e-06)
(-1.26113e-12 2.83451e-13 6.09047e-13)
(-1.27919e-08 -2.16798e-07 -1.08369e-07)
(6.86361e-11 -8.47673e-11 -1.83738e-10)
(-1.6964e-09 -4.08123e-08 -4.67549e-09)
(1.18143e-13 -5.6566e-13 -6.48444e-13)
(-5.54947e-13 3.47978e-13 1.81024e-13)
(1.03959e-12 6.01728e-13 -1.40291e-12)
(-5.37523e-13 -2.64642e-13 -1.445e-12)
(-3.00645e-13 -1.51654e-13 3.87366e-13)
(3.34848e-13 -2.06304e-13 3.22278e-13)
(-3.83969e-13 3.3579e-13 -4.819e-13)
(4.60763e-14 -6.39828e-13 -8.30161e-13)
(2.51833e-13 6.32253e-13 -2.90529e-13)
(-0.000116876 -8.06656e-05 -0.000225491)
(4.28756e-13 -4.51508e-13 -2.79469e-13)
(-1.5196e-05 -9.06099e-06 -9.40847e-06)
(-2.70795e-07 -2.79357e-07 -3.0984e-07)
(5.51317e-10 -4.55281e-08 -6.30957e-08)
(-0.099379 0.0397869 0.082668)
(9.68042 16.5076 16.214)
(-5.49604e-13 -6.885e-14 3.13078e-13)
(3.93496e-06 1.47008e-07 2.82398e-07)
(-0.184126 0.339657 -0.579454)
(-0.944451 20.2869 13.9033)
(0.000662416 0.00480848 -0.005142)
(1.56545e-11 6.51296e-12 -1.09625e-13)
(-6.59251e-06 3.37838e-06 4.90097e-06)
(-1.82082e-13 -7.72758e-14 5.90227e-13)
(6.99974e-11 -2.12152e-10 1.45962e-10)
(2.02279e-05 -1.97908e-05 1.69398e-05)
(2.36467e-13 -4.96826e-13 2.15317e-13)
(-6.16268e-14 -6.97548e-13 5.22678e-13)
(-2.72008e-05 -7.01712e-05 -8.33879e-05)
(-2.31077e-13 2.25876e-13 -5.0175e-13)
(1.10238e-06 9.63602e-07 -1.82723e-06)
(-4.91365e-07 4.67085e-09 -3.05031e-06)
(-3.01128e-06 6.28042e-06 -6.66898e-06)
(-5.80266e-05 -0.000914412 -0.000122245)
(32.6312 -25.5586 -17.0317)
(-0.000709391 0.000247781 -0.00120003)
(-8.46143e-10 -1.58824e-09 -2.70723e-09)
(1.08515e-13 -2.77077e-13 -6.32343e-13)
(-2.75223e-13 -2.43762e-13 1.76165e-13)
(12.7765 -2.20081 -7.21061)
(-1.18756e-13 -6.28934e-13 -1.32029e-13)
(5.89073e-14 -3.40605e-13 7.14463e-14)
(6.45561e-13 5.12856e-14 4.61822e-13)
(-0.0251795 -0.0342623 -0.0209786)
(1.5629e-16 5.00426e-13 5.49464e-13)
(-2.32276e-06 9.1742e-08 2.91691e-06)
(2.17952e-13 -3.80333e-13 2.63808e-13)
(6.69792e-13 -7.19599e-13 -5.34605e-13)
(2.45613e-11 -1.26919e-11 3.30496e-11)
(-1.67094e-12 1.6992e-13 -4.39205e-13)
(-7.45984e-14 1.59469e-13 2.0853e-14)
(9.31862e-06 -6.87665e-06 -3.99265e-06)
(13.7806 7.2285 -3.25689)
(0.34531 23.2473 -3.19139)
(1.12777e-13 4.99066e-13 1.29758e-13)
(-2.58933e-13 7.96123e-14 -1.75405e-13)
(-14.8996 1.33193 1.53245)
(5.30302e-08 2.91684e-08 -8.05708e-09)
(-1.66038e-13 -5.00865e-13 -1.87086e-13)
(-1.30222e-13 7.43262e-13 8.24578e-13)
(-5.66097e-07 -1.16021e-06 8.34896e-07)
(-5.32812e-13 -2.02787e-13 5.05465e-13)
(1.03763e-12 -2.68475e-13 -1.02467e-12)
(8.93064e-13 2.5326e-13 -5.221e-13)
(-2.11137 -0.731128 -2.14608)
(8.36466e-13 -1.48196e-13 -5.49909e-13)
(3.37928e-11 -6.41778e-11 2.9993e-11)
(-0.00096171 0.000417434 -0.000311083)
(8.3446 12.0532 -2.22382)
(-5.86735e-13 1.07865e-13 4.14636e-13)
(4.3204e-10 2.02963e-12 -1.09493e-10)
(-3.06105e-06 -2.23921e-06 1.57543e-06)
(-5.32198e-13 -5.08627e-13 6.70912e-13)
(-0.0087143 0.00322711 0.00682644)
(-6.45016e-07 -7.79672e-07 -5.78282e-07)
(7.12152e-13 8.00198e-13 -4.25526e-13)
(-5.79504e-13 3.0284e-13 -8.61174e-13)
(9.8572e-13 5.60438e-13 6.07734e-13)
(-6.54367e-14 -1.39322e-13 -2.87763e-13)
(1.83494e-13 -2.45605e-13 2.97212e-13)
(-0.0510624 0.01584 0.00585515)
(-5.79142e-13 -1.98213e-16 -5.47201e-13)
(-8.22823e-13 9.87995e-14 1.15e-12)
(-4.28395e-13 7.75866e-14 4.45454e-13)
(0.202937 0.882218 -0.149735)
(-7.76202e-13 2.4996e-13 -4.99354e-13)
(-1.94722e-13 -4.47851e-13 -8.05354e-14)
(-7.28742e-13 3.32881e-14 -1.46311e-14)
(2.46838e-14 -1.58961e-14 -6.33784e-13)
(-5.48642e-06 1.80841e-06 -3.63758e-06)
(-8.39544e-13 4.95131e-13 3.89806e-13)
(-4.10659e-13 -2.10366e-13 2.68407e-14)
(-2.52673e-14 5.25926e-13 4.47695e-13)
(-4.52361e-13 6.53965e-13 1.43133e-13)
(3.77671e-13 8.33898e-13 3.17084e-13)
(-4.23157e-13 -4.4046e-13 4.88388e-13)
(-2.73433e-13 9.33262e-13 -1.75982e-13)
(-2.00904e-06 -5.89254e-07 7.15017e-06)
(-14.4654 -0.901097 -0.194809)
(-7.80037e-14 8.34122e-13 6.31075e-13)
(2.79066e-13 -4.08754e-13 -1.42244e-13)
(-8.60241e-13 5.97278e-15 3.53615e-13)
(-1.28085e-13 -8.51974e-13 -6.96799e-13)
(0.526635 0.501791 -0.367468)
(5.87354e-15 -3.68087e-13 -2.64876e-13)
(2.24798e-10 1.12048e-10 2.86982e-10)
(0.243478 2.00294 -0.0724118)
(1.64065e-13 6.81665e-13 6.00001e-13)
(-0.20312 -0.158981 -0.0728901)
(4.89208e-10 3.19457e-10 7.41879e-10)
(9.834e-13 -4.5333e-13 -2.30409e-13)
(-1.98541e-13 9.14919e-14 -6.04805e-13)
(-4.89243e-13 -4.81225e-13 -2.95268e-13)
(0.699757 3.90111 0.559526)
(6.54924e-13 6.59582e-13 -3.70088e-13)
(-2.66148e-13 -1.79765e-13 -2.00831e-13)
(1.16447 10.5306 8.00023)
(-0.0608135 -0.0998371 0.00424057)
(8.5147e-13 -9.84577e-13 1.45807e-13)
(4.32922e-12 -1.12406e-12 3.04063e-12)
(1.38885e-13 7.99958e-13 1.01604e-12)
(-2.69072e-13 4.9354e-13 2.83178e-13)
(3.2802e-13 -1.02695e-12 1.04849e-12)
(2.18512 11.9974 7.83498)
(6.17697e-08 -1.94604e-07 -3.02454e-07)
(6.90827e-13 -9.44727e-14 -7.40367e-13)
(-5.29383e-14 4.69167e-13 -6.93894e-13)
(-5.64476e-13 -3.83257e-12 -2.32813e-13)
(5.10692e-09 -5.49589e-08 -3.40786e-08)
(-4.95287e-13 6.22991e-13 7.7019e-15)
(1.36626e-13 4.59801e-13 -3.71398e-13)
(-3.42212e-09 -4.80129e-09 -2.97256e-09)
(-1.12017e-05 5.5273e-06 -1.84751e-05)
(-6.18768 16.0108 5.82083)
(-10.4392 22.4198 -3.12581)
(5.60887 22.1233 0.100111)
(8.02721 5.56388 6.93436)
(-0.34901 7.1147 4.87387)
(-2.16411 7.68008 9.39477)
(2.00135 22.5971 7.28008)
(6.27043e-13 -4.05257e-13 -1.74161e-13)
(-4.35905e-06 -3.12101e-07 -3.2351e-06)
(-3.31368e-14 6.36004e-13 2.01513e-13)
(-1.32895e-06 -7.84915e-07 -1.14764e-06)
(-4.64956e-13 -1.2262e-12 1.42504e-12)
(18.7851 0.597195 -3.14986)
(-8.46471e-13 -6.70483e-13 8.46485e-13)
(-1.65586 3.30433 0.757741)
(-0.00361783 -0.000213915 -0.00570877)
(1.19743e-12 3.66685e-13 8.87094e-14)
(6.92579e-14 3.47682e-13 1.13052e-13)
(-28.9112 -1.96061 10.9015)
(-2.55142e-13 -4.49004e-13 -4.81089e-13)
(16.7509 13.4111 -7.92803)
(-19.5911 1.94054 0.416617)
(-0.00107918 0.000777517 0.00290334)
(-3.31682 27.9681 0.68138)
(0.23855 0.43875 0.155947)
(-0.45045 5.43094 6.32477)
(-2.52464e-13 -8.27899e-13 -4.31656e-13)
(-1.02302e-12 -4.18797e-14 -7.69524e-14)
(-0.000550929 0.000531589 -0.000256525)
(6.27085e-13 -6.39509e-13 5.57243e-13)
(19.6554 19.9011 24.8658)
(-5.27223e-13 7.69227e-13 -5.56735e-13)
(5.03635e-13 -4.43408e-13 -9.59905e-14)
(-1.00838e-11 -1.12455e-11 -2.7906e-11)
(-1.64987 19.601 -0.890364)
(8.36608e-14 -2.06937e-13 1.01221e-12)
(-2.95706e-12 -1.64599e-13 -3.66256e-12)
(-5.55672e-06 -3.64331e-06 -1.52428e-06)
(4.32948e-13 -1.1101e-13 2.63904e-13)
(1.20249e-12 3.8554e-14 6.30205e-14)
(-0.240771 21.0968 0.359405)
(-0.339497 20.6502 -0.446655)
(5.92731e-13 -1.95167e-13 7.56364e-13)
(-2.6837e-13 -1.77913e-13 1.04766e-13)
(-0.0138785 0.0131851 0.0178135)
(-2.08762e-08 -4.03269e-08 -4.35758e-08)
(1.21793 18.5083 -1.23524)
(-3.56617e-13 -2.91606e-13 -9.1215e-13)
(-9.51183e-07 -8.95987e-06 -6.44732e-06)
(6.48786e-14 -4.2877e-13 1.04205e-12)
(-4.96858e-14 -3.95113e-13 4.7483e-13)
(6.13782 18.9542 1.22278)
(-8.22401e-13 -4.57276e-13 8.40434e-14)
(2.87159e-11 -1.38932e-09 1.32379e-09)
(5.6212 22.1867 2.84741)
(-5.02375e-13 3.88925e-13 3.37294e-13)
(1.74546e-13 -4.64617e-14 5.89161e-16)
(1.84169 10.2288 -0.926821)
(-5.48496e-11 -1.13409e-10 -8.26701e-11)
(-3.5999e-07 1.72944e-06 1.02175e-06)
(5.17423 26.6343 -2.55844)
(1.31501e-13 7.63284e-13 4.81865e-13)
(-1.88751e-13 -6.59163e-13 -5.2736e-15)
(-9.05567e-13 6.78294e-13 7.4536e-14)
(1.39573 2.05885 0.182049)
(-4.59538e-13 -4.01143e-13 -1.92059e-13)
(1.52806e-13 8.07254e-13 5.96176e-13)
(-1.1922e-12 -1.08666e-12 8.74264e-13)
(-2.48114e-13 -1.21403e-12 -2.01903e-12)
(-2.07517e-11 -2.4238e-11 -2.178e-11)
(-0.000202665 0.000190462 -0.000205084)
(4.68654e-15 7.71268e-13 2.73103e-13)
(-2.62252e-13 5.69247e-14 3.11995e-13)
(3.61167e-13 -1.43304e-13 -1.13309e-12)
(-3.94374e-08 -3.45468e-08 -2.95924e-08)
(-0.377935 25.8855 2.1344)
(-8.40667e-14 -4.82966e-13 -3.17533e-13)
(-0.000233323 -8.40721e-05 -0.000284953)
(0.861032 23.3072 -0.53134)
(-1.95344e-05 1.26105e-05 -2.2772e-05)
(1.94252e-13 2.00531e-13 -9.12387e-13)
(-3.50274e-13 -1.25939e-12 -8.89498e-13)
(0.282343 27.0911 -0.520398)
(-0.0648744 23.0087 1.1666)
(-2.10046 16.969 7.01376)
(-1.69579e-08 -3.96839e-08 -2.68156e-08)
(-30.2581 -6.30368 11.8391)
(-2.34014e-14 3.53839e-13 8.41775e-13)
(-17.0346 0.516237 -0.559313)
(0.586699 1.41481 0.616147)
(-17.9627 -0.218843 0.0576155)
(2.82471e-13 1.23536e-13 1.76676e-13)
(-1.48961e-13 -8.85697e-14 6.61055e-13)
(4.3255e-13 -2.36749e-13 -1.08796e-13)
(-6.99819e-14 -4.22937e-15 -5.99321e-13)
(3.34956e-13 -2.47341e-13 3.15873e-13)
(-16.8869 -1.1707 0.313932)
(2.53869e-15 2.08083e-13 -7.9955e-13)
(2.85187e-13 -6.76576e-13 5.7285e-13)
(8.39447e-13 -2.60083e-13 5.321e-13)
(1.59562e-12 -2.24157e-14 -3.79253e-12)
(1.001e-12 -2.57478e-13 -2.36151e-13)
(-1.68286e-09 -1.96512e-09 -8.35039e-10)
(-1.16596e-13 -9.06662e-14 7.88573e-15)
(-0.00203254 0.000501802 -5.21339e-05)
(-14.7749 1.38309 3.13532)
(-6.90654e-13 2.59011e-13 4.15571e-13)
(-0.00011892 0.000220438 -8.14232e-05)
(-2.18845e-13 1.98273e-13 3.4341e-13)
(1.65459 -20.3116 2.36732)
(-16.1466 2.25152 0.4136)
(5.28927 -0.0413521 7.6436)
(-8.78788e-11 -1.05869e-10 9.57925e-11)
(-16.0356 0.779081 0.475876)
(-7.03387e-14 -5.84825e-13 9.58209e-14)
(-1.63929e-13 -2.50153e-13 -6.26784e-13)
(-2.90722e-09 -7.02791e-09 -1.38217e-08)
(-25.6749 -1.16772 0.298054)
(-3.87556e-13 -2.06271e-13 -3.29863e-13)
(2.19571e-13 6.50433e-14 -5.24661e-13)
(-9.30647e-15 8.3856e-14 -4.64192e-13)
(-2.88311e-13 -5.39418e-14 -1.13322e-12)
(-15.9185 -1.1231 1.32979)
(1.0069e-13 3.32776e-13 4.28478e-13)
(7.6232e-15 -3.9003e-14 1.19186e-13)
(4.38424e-13 2.05869e-13 5.43702e-13)
(-6.19035e-13 -7.9866e-13 5.71312e-13)
(1.62578 0.268656 -0.80717)
(8.6716e-14 -2.06958e-13 -8.07704e-13)
(2.0205e-14 -3.54862e-13 -1.23262e-12)
(-17.415 0.0130825 -0.307836)
(-15.6382 3.99389 0.994446)
(0.00010898 -0.00184613 0.00280694)
(-1.48081e-12 -6.08659e-13 5.30841e-13)
(-2.5886e-14 -1.88663e-13 -5.69324e-14)
(9.4556e-13 3.2713e-13 -2.14691e-13)
(-2.32178e-11 2.12012e-10 -7.26216e-10)
(-1.33571e-13 -6.29118e-13 5.58064e-13)
(4.45251e-13 1.04931e-12 4.67966e-13)
(-3.91939e-13 -4.41244e-13 -1.02006e-13)
(1.18999e-13 -2.31082e-13 -3.852e-14)
(-4.92522e-13 5.51715e-13 -5.24388e-13)
(25.5955 -0.967112 1.10413)
(25.4269 -0.444428 -2.17749)
(8.45753e-14 5.40716e-13 9.04317e-13)
(1.66476e-13 9.41944e-13 -1.02598e-13)
(22.6998 -1.00315 -0.168087)
(-0.00120136 0.00348822 -0.0032998)
(2.48983 2.35544 0.904012)
(1.29381e-12 -4.38555e-12 -4.6439e-12)
(2.00269e-13 8.11996e-13 -3.74297e-13)
(-4.30733e-13 -4.86195e-13 4.90736e-13)
(3.23004e-09 -2.03327e-09 3.00872e-09)
(0.299576 0.103456 0.0344352)
(-0.0142487 0.00727772 -0.0433551)
(23.6452 1.49906 0.447927)
(1.19189e-13 -8.89406e-14 2.97485e-13)
(20.5345 0.135232 -0.583296)
(-3.87511e-13 3.22949e-13 2.7993e-13)
(1.19865e-12 -6.97198e-13 2.28307e-13)
(21.7369 0.95669 -0.499864)
(22.9225 1.58345 -1.53393)
(-5.39391 1.77354 5.17943)
(1.70202 0.846472 3.96368)
(3.09357e-13 -1.39404e-13 2.19609e-13)
(-5.97385e-13 8.24275e-13 -7.25983e-13)
(1.88158e-13 -1.10702e-13 -9.85524e-13)
(-2.17315e-13 -4.28484e-13 -4.94385e-13)
(25.2348 0.603082 -0.330496)
(3.11682 26.6807 -3.02737)
(18.2944 -0.424283 2.4826)
(28.0648 3.25306 0.92778)
(-0.202155 -0.00993539 0.162408)
(1.66723 0.784842 0.251485)
(21.3572 3.11143 0.797713)
(2.86564e-13 4.30858e-14 -9.43829e-13)
(-16.6764 -1.60902 0.750816)
(2.87744e-08 2.16066e-09 -1.95284e-08)
(5.11187e-10 -1.25728e-09 -3.66154e-09)
(-0.000383953 -0.000970525 -0.000666459)
(0.423305 29.1017 3.38328)
(-8.94829e-13 6.17554e-14 6.42586e-13)
(2.79245e-10 1.44308e-10 1.46399e-09)
(-4.63832e-13 8.70256e-14 -6.28051e-13)
(-7.00668e-13 -4.84085e-13 2.73415e-13)
(3.13224e-08 2.39478e-08 -6.15418e-08)
(2.05377e-13 -6.13431e-14 3.40472e-13)
(-3.38121e-05 5.39511e-05 -1.98938e-05)
(-5.11694e-13 7.68286e-14 2.37482e-14)
(-1.08807e-13 -6.71264e-13 4.81083e-13)
(-3.50374e-11 4.572e-11 5.01923e-11)
(-1.9797e-13 3.66172e-13 -1.71197e-13)
(2.03853e-11 -4.39193e-12 6.34251e-11)
(-1.02894e-12 -4.27316e-13 -2.42623e-13)
(-2.27322e-13 -1.17762e-12 5.33116e-13)
(2.62604e-13 -1.07081e-13 5.46065e-13)
(-7.46397e-11 -1.53206e-11 1.77212e-11)
(-1.06801e-06 1.39663e-06 -1.85127e-06)
(-5.36396e-06 5.85716e-06 1.3177e-05)
(-2.07074e-13 1.95872e-13 3.89653e-13)
(2.17728e-07 2.53745e-08 4.20772e-07)
(6.78864e-06 1.7313e-06 5.87329e-06)
(-1.4716e-12 -3.35448e-13 9.06165e-14)
(6.43702e-08 6.91735e-08 -3.01566e-08)
(1.00337e-12 2.36948e-13 -4.38231e-13)
(-0.00330148 -0.0843428 -0.0725919)
(-3.51861e-10 -1.3645e-09 -3.67081e-10)
(-4.94963e-13 1.78176e-13 -1.03398e-13)
(7.0756e-12 8.31659e-11 -1.69947e-11)
(-3.91346e-08 -1.51021e-09 7.66019e-07)
(4.62183e-06 -0.00105117 -0.00229552)
(-2.33605e-13 2.07084e-13 -5.83656e-13)
(3.18002e-10 -3.08757e-10 -7.7197e-10)
(-4.77752e-13 -1.36546e-13 -4.86573e-13)
(6.15081e-13 5.37669e-13 -1.39905e-12)
(-4.4043e-13 -2.97416e-13 2.74461e-13)
(1.42038e-09 2.42615e-10 1.95594e-09)
(6.97425e-05 5.26558e-05 -3.07378e-05)
(-4.74993e-14 -1.18706e-12 -3.43769e-13)
(-2.03454e-08 6.70332e-08 6.94429e-08)
(-1.51841e-07 -4.68504e-07 -3.10887e-07)
(-2.7745e-09 -8.34858e-10 -5.01608e-09)
(0.564696 17.7439 0.908365)
(-1.83084e-13 1.0934e-13 9.98986e-13)
(-9.0796e-12 -3.09611e-11 -6.61348e-11)
(-3.04496e-13 1.35003e-13 1.48332e-13)
(3.54681e-13 -8.23073e-14 -4.15264e-13)
(-2.84626e-13 -1.30771e-12 -1.3713e-13)
(2.28404 -0.726231 1.72655)
(6.21752e-09 -5.73749e-09 1.66566e-08)
(-2.4162e-10 -1.08579e-09 6.13443e-09)
(1.89184e-07 6.06608e-07 -4.18281e-07)
(-1.47585e-12 -1.15682e-13 2.95453e-13)
(1.33822e-12 -6.0425e-16 2.16027e-13)
(-2.86618e-08 -1.30345e-07 -3.74383e-08)
(7.79643e-13 6.23476e-13 5.13787e-13)
(-5.28658e-10 8.10072e-11 6.07433e-10)
(-2.55068e-08 -9.16721e-08 2.95297e-07)
(-1.02225e-10 -1.18251e-10 9.47271e-11)
(-4.77815e-13 -3.55456e-13 -5.38809e-13)
(-2.80401e-13 -3.45346e-13 5.29448e-13)
(6.67338 34.4415 0.226816)
(1.62537 27.8613 3.55293)
(2.95385e-13 2.52764e-13 -2.81267e-13)
(3.75334e-11 -1.92274e-10 -1.00581e-09)
(2.05983e-13 -2.43634e-13 -1.90023e-13)
(-4.80671e-13 -6.5707e-13 3.74924e-13)
(-5.17786e-13 5.71255e-13 -8.76993e-14)
(2.12628e-13 5.71061e-13 -2.15449e-13)
(-1.30204e-06 -1.11628e-06 5.1673e-07)
(-2.09724e-08 2.07609e-09 2.97573e-08)
(3.31066e-09 -1.98877e-09 -9.03099e-09)
(13.9947 -4.64829 -2.99611)
(-2.80985e-13 1.42157e-13 -2.6423e-13)
(0.459014 0.255802 0.704668)
(-4.91536e-13 5.15609e-13 -4.99269e-13)
(-2.05037e-09 2.67551e-09 2.09589e-09)
(7.86113e-13 1.62617e-12 -1.24684e-12)
(0.146306 0.490583 0.182667)
(1.02729e-13 2.51309e-13 -1.97852e-13)
(-7.97282e-10 9.55995e-10 7.30342e-10)
(-6.43983e-09 2.81684e-09 2.66583e-09)
(3.66446e-13 -2.59119e-13 -3.43543e-14)
(-4.08448e-05 0.000619141 -0.000495)
(2.17334e-13 -4.43194e-13 -6.46163e-14)
(7.58353e-11 -1.01101e-11 -3.66222e-10)
(-2.92736e-11 8.25657e-11 -1.94403e-10)
(5.86473e-13 -7.47606e-14 5.26863e-13)
(-2.02634e-14 -5.65067e-15 2.98298e-13)
(-1.81014e-11 1.6831e-11 -1.13711e-10)
(1.49074e-13 -1.04838e-13 6.69576e-14)
(3.34641e-11 1.91308e-11 -1.19713e-11)
(-2.79955e-13 1.23041e-13 8.88352e-13)
(1.59048e-13 5.21137e-13 3.07255e-13)