/*--------------------------------*- C++ -*----------------------------------*\
| =========                 |                                                 |
| \\      /  F ield         | OpenFOAM: The Open Source CFD Toolbox           |
|  \\    /   O peration     | Version:  2312                                  |
|   \\  /    A nd           | Website:  www.openfoam.com                      |
|    \\/     M anipulation  |                                                 |
\*---------------------------------------------------------------------------*/
FoamFile
{
    version     2.0;
    format      ascii;
    arch        "LSB;label=32;scalar=64";
    class       volScalarField;
    location    "0.45";
    object      alphat;
}
// * * * * * * * * * * * * * * * * * * * * * * * * * * * * * * * * * * * * * //

dimensions      [1 -1 -1 0 0 0 0];

internalField   nonuniform List<scalar> 
32842
(
0.000778171
0.000776966
0.000778337
0.000778302
0.00179133
0.00077804
2.33665
3.38375
0.000778323
0.00077751
1.0416
1.65446
0.00077721
0.000778323
0.000773445
0.00077601
0.000777013
0.000777852
0.000777918
0.0017567
0.00191661
0.00324867
0.00169889
0.000778351
0.00183162
0.000778304
0.000778108
0.0013614
0.772159
0.000777951
1.22185
0.635941
20.488
0.000778511
25.8938
7.19094
0.00217501
0.000785014
0.000778643
0.000778189
0.000778246
0.00190889
0.000778323
0.000778323
0.439405
0.00077834
2.0853
0.00077578
0.00186888
0.15732
6.11046
0.000778323
0.794362
0.377321
0.00077834
0.011667
0.000778279
1.08517
0.000778329
0.000778323
4.99319
0.759893
0.850687
0.00193436
0.000776973
10.6539
0.000778331
0.947518
0.589358
0.000778531
0.00134537
2.6047
0.67053
0.000778323
0.000778321
0.000777655
0.305139
0.00077832
0.668082
0.974125
0.00177688
0.000778317
0.000778319
0.746142
1.05293
0.000778322
0.000778322
0.016298
0.150588
0.000776919
0.00203795
0.00185247
8.48579
0.000776989
0.000778257
0.000777467
0.6505
0.00077531
0.969601
0.000778323
0.000778323
0.00294085
0.000780378
0.580925
0.665603
0.60822
1.16052
0.000604671
0.70541
0.000776516
0.000777343
0.000777136
5.2234
0.000777188
0.000779415
0.0018864
0.731599
1.09811
0.000778005
0.000777193
0.000777348
0.000777227
0.0603443
0.000778307
0.000735411
0.662981
0.52782
0.000778713
6.78582
0.000778316
0.000778317
0.000755093
0.00314817
0.657802
0.00319938
0.000777226
2.01635e-05
0.168864
0.000777318
0.000778136
0.715205
0.000777838
0.711012
1.85775
0.000777777
0.000777525
15.3816
0.000777415
0.000778323
0.000777388
0.000801876
0.222032
0.0018062
2.0896
0.000776398
0.000778323
0.000778315
0.000777396
0.000777847
0.000777306
0.000777759
0.000778319
0.00169008
0.00077832
0.000776193
0.000777906
0.000778319
0.000776795
0.000781779
2.44763
1.87654
0.002762
2.59967
0.000778323
0.001957
0.787737
0.000777585
0.00077911
0.000778323
0.000776864
0.00126909
0.000777074
0.00077705
0.000778193
0.736236
0.00077682
0.675911
0.000777084
0.000777943
0.000777354
0.000777539
0.115204
0.577467
0.000778321
0.60015
0.000777956
0.000778138
0.000778243
0.648462
0.000777046
0.000777305
0.000787239
0.122513
3.31214
2.95508
0.00586293
0.000777209
0.00191842
0.603467
0.000777956
0.000777683
0.000792913
2.44651
2.43238
0.000777538
0.000778323
0.000777931
0.000780327
0.000777926
0.000775756
0.104746
0.000778257
0.000777377
0.000777783
0.00263425
0.506305
0.000778339
0.626813
0.000778148
3.80203
0.000777091
0.000777547
0.000777163
0.000778255
2.63632
0.00183987
0.00187673
0.544502
0.000778387
0.762185
0.114784
0.000779498
0.000777892
4.5468
0.000776814
0.000775046
0.805008
0.000778051
0.000778145
0.000781325
0.000778323
0.000778089
0.000776347
0.651842
0.000779225
0.000777999
0.00077691
2.05628
0.000777525
0.000777323
0.000777828
0.000778323
0.000778323
0.000778103
0.495125
0.000778076
0.000777409
0.00077735
0.00078387
0.000778343
0.000777343
0.655913
0.000777736
0.50025
0.000778007
0.72596
0.000777931
0.00267184
0.000778269
0.000777698
0.000777505
10.8034
8.31713
0.000778323
0.000778049
0.00591668
8.56591
0.000778323
0.00193749
0.000778322
11.368
0.000778338
0.586055
5.40424
0.318712
0.000755056
0.581253
0.000777415
0.000777856
0.00167385
2.46729
0.000779318
0.000777341
0.000780464
0.000778312
0.000778323
0.000778323
0.000778323
0.000777453
0.766131
0.000780186
0.000778323
0.757956
0.000777162
0.000778323
0.000777596
0.000778245
1.4215
0.000776977
0.000778534
0.000777986
0.100262
0.000777834
0.00109983
0.000778344
0.000777789
0.000777758
0.000778341
0.000777452
0.000778323
0.000776634
0.687015
0.000778322
0.000778323
0.000777573
0.000778291
1.28245
0.592053
0.000778323
0.000777283
0.000777868
0.000778039
0.0155501
0.000778321
0.765804
0.000778323
0.000778302
0.616978
0.88204
0.703843
0.00079048
7.28379
0.000777838
0.648369
0.000777606
0.000775838
0.00297877
0.000778077
0.000777299
0.00077889
0.000778323
0.000778323
0.000778196
0.802552
0.000777873
0.000776729
0.000778323
0.000778323
0.816681
0.00162886
0.00077832
12.0294
0.000776814
0.00288136
0.000778322
0.710504
0.00249796
0.000778323
3.10313e-05
0.0017105
0.000777597
0.77625
0.665463
0.00077817
0.000778064
0.000778347
0.000778318
0.000778159
0.000778189
0.000777378
0.000777514
0.000777857
0.000777542
0.000778243
0.000777737
0.000778323
0.000777988
0.000777895
0.000777889
0.000775494
0.123732
0.000778323
0.00077751
0.000778228
2.74389
0.000777759
0.000778537
0.00298181
0.00077826
0.0021759
0.521234
0.000776889
0.000778323
0.000778031
0.000776999
0.000778285
0.000777547
0.000777345
0.000776638
6.26128
0.0007775
0.669704
0.000778309
0.00242737
1.32444
0.000778304
0.000776944
0.000778322
0.000709486
0.000778335
0.00077942
0.000778323
0.000778284
0.681746
0.00177542
1.29716
0.00077813
10.9385
2.89973
0.723474
0.00217096
1.99809
0.00225137
0.73762
0.000780401
0.000777191
0.00120843
0.000778341
0.00160372
4.79665
0.00077835
0.000777611
0.00078071
10.4607
0.00154194
0.000778517
0.000777911
0.00183257
0.000776228
0.000785768
0.000776542
0.00199797
0.00077832
0.000778328
0.000778323
0.000776295
0.000777169
0.742241
0.000777551
0.000781018
0.000778323
0.00201556
0.00181085
0.000778323
0.000777548
0.746488
0.693001
0.000778322
0.000778339
0.000778323
0.000778323
0.00177897
0.000776646
0.552056
0.744619
0.000776732
0.000778342
0.949543
0.000792885
0.000778323
0.00231683
0.000781083
0.00123426
0.000816527
0.701295
0.00194225
0.562102
0.746982
0.00281771
0.000777652
0.00271111
4.35297
0.000776904
0.699555
0.00245157
0.965662
0.00153978
0.000777419
4.27344
0.00227934
0.000777482
0.673952
0.000777667
0.652293
0.000777533
0.000778338
0.00258609
0.00296148
6.47507
4.41945
0.654865
2.1271
4.09583
3.26095
8.74957
0.725409
0.000777811
0.000777363
0.000776738
0.746112
0.588992
0.871611
1.05543
0.000777655
0.00077676
0.00156705
0.383174
0.000778345
3.51145
2.42761
0.000791806
1.18282
0.000500489
3.28875
0.000782453
0.000778323
0.000777619
0.709358
1.58309
0.000778323
0.00204051
0.000781616
0.155588
0.586965
0.000777286
0.000778001
0.000777028
0.000778216
0.100206
0.5121
0.000778323
0.000778323
0.00077791
0.646636
0.000557738
0.935353
0.000778106
0.000776974
0.000778323
2.98461
0.755478
0.567807
1.57786
0.577751
0.000778275
7.78847
0.580439
0.000777577
3.95265
0.000778326
0.00178501
0.000778323
0.00872116
0.00187477
0.00171273
0.000778323
0.000777587
0.000777172
0.000777641
0.755312
0.00212628
0.000778335
0.000777397
2.59006
0.000778265
0.00453008
1.69232
0.897199
0.000776042
0.000777414
1.81797
1.43973
30.0612
0.000778069
7.02343
1.07485
0.244711
0.000783667
0.335012
0.000778334
0.00077731
0.000778348
0.000778323
0.000778323
0.277313
0.00184566
0.000777214
0.000778323
0.000777591
0.000778323
0.000775818
0.000777631
0.000777571
0.0324709
0.923933
0.000777526
0.000778323
0.394331
0.267906
0.257123
0.000777578
0.195863
0.000777432
0.000778323
0.000783295
2.02293
0.674166
0.000778297
0.00220064
0.000778309
1.03
0.000778323
0.000778323
0.000778336
0.000778936
0.258186
0.000778323
0.000778323
3.51719
0.370042
0.000765715
0.000779494
0.00077711
0.593055
1.05841
0.000778322
0.679385
0.00230982
0.000778323
0.000778237
3.79533
7.68201
0.000778323
0.952948
3.17894
0.00077753
0.421149
0.000777437
0.000778323
0.00242673
0.00235703
0.000821621
0.000777199
2.3048
0.000778294
3.38574
0.000777754
0.000778304
1.97685
4.75781
0.81425
0.495554
0.000778323
0.000779154
0.00162731
0.00172056
2.97347
0.274616
6.31796
5.98554
0.000774734
0.000781104
8.64733
0.00077762
0.892097
0.000777378
0.000783267
0.836672
0.260695
0.000776525
0.000777182
0.000777751
0.000777231
0.000778264
0.000778323
0.000777292
0.000778323
0.000778323
0.773194
0.000778323
0.000781611
0.000778323
1.21773
0.000777052
0.000778192
0.000777838
0.572687
0.000778238
0.000776818
0.000776927
0.000776648
0.000777875
0.000778335
0.000821043
0.000778601
0.000777756
0.000778939
0.000777035
0.000232471
0.000775565
0.00235155
0.00116975
0.00201616
0.000778317
0.00248017
0.00321734
0.558635
0.000776686
0.000777862
0.00221105
0.216318
0.000778323
0.509065
0.00260694
0.000778323
0.000778323
0.00165153
0.000778746
0.000779891
0.782388
0.000778323
0.000777424
0.000778092
0.00222945
0.649499
0.000776869
0.00241037
0.000778213
0.00162906
1.40631
3.8435
0.00203139
0.000778367
0.88214
0.000777134
0.000778323
0.000777044
0.00077734
0.000783512
0.000774127
0.152796
0.000778319
0.000781418
0.795034
0.00251849
0.000778404
0.000777791
0.000778322
0.872498
0.0032144
0.717274
0.000777476
0.578607
0.519887
0.00195445
0.000778341
0.001638
0.000777445
0.00219526
0.000777911
0.000777344
0.00195315
2.14606
0.640164
0.000777724
12.0568
0.000776482
0.539228
0.000777072
0.000777688
0.000777559
0.00077832
0.000776169
0.000784065
0.000777805
0.00077734
0.000778256
0.00077781
0.00077746
0.000777616
0.653032
0.000787313
0.120727
0.000777665
0.000777824
0.00214656
2.89817
0.000777695
0.000777988
0.00188652
0.000777215
0.000778728
0.000780852
0.00302039
0.882989
0.000778323
0.000778021
0.000781665
0.000776873
0.000778116
0.000776515
0.000777477
0.000778323
12.9578
0.000777233
38.479
0.000777666
0.000777586
0.000776046
0.000775595
0.00194211
0.000777958
0.000778323
0.000778323
0.00077745
0.188986
0.000778323
0.000780422
0.707738
0.000776072
0.658203
0.000777344
15.6156
0.000777526
0.000777881
0.900255
6.23763
0.000772526
0.000777719
7.20031
0.00236857
0.000777379
0.000778358
0.000778323
0.000778381
0.000778205
0.646406
0.710771
0.667616
0.000778323
0.720634
0.000776791
0.00077633
0.000778482
0.00145547
0.00117089
0.000777381
0.000777806
0.000778048
0.000777865
0.000776681
0.000778323
0.000778586
0.000776171
0.000775217
0.0148907
0.00228556
0.000778323
0.12913
0.231816
0.000774932
0.0022272
0.0641019
0.000778323
0.000777202
0.000777982
0.500216
0.000778323
0.000778323
0.626311
0.00242724
0.000777262
0.000778323
0.000778323
0.000778231
0.0009703
0.155275
0.000777536
0.000775719
0.559001
0.000781438
0.000779325
1.14973
0.000778042
0.000778193
0.000778345
0.000776949
0.64235
0.000781062
0.000774972
0.000777952
0.000778471
0.0023542
0.000778323
0.558316
0.00179704
10.6393
0.000778323
0.000778323
0.000777381
0.0007776
0.000777802
0.000778323
0.067466
1.56964
0.00152368
0.0138567
0.000778323
0.00164035
0.00077831
0.000778321
0.00078146
0.000778323
0.000778808
0.000778135
0.000778323
0.000776767
0.000777179
0.000777846
0.179906
0.000777497
0.927682
0.000777428
0.769541
0.748089
0.000778323
0.00168615
0.750938
3.02607
5.24541
0.0263228
0.000777616
0.000778346
0.000778323
0.000778346
0.126233
0.000778342
0.175643
0.119652
0.0497264
0.132681
0.00118995
7.56428
0.000778323
3.16411
7.3576
0.000777619
2.25493
1.11538e-05
0.000776608
0.000778323
0.000777639
29.1928
0.000777801
0.690933
0.00188571
26.5957
0.483879
0.782605
0.00287093
0.000778323
0.000777316
0.00077775
0.000777509
0.000784629
0.00077785
0.00077729
0.000778064
0.173172
0.00248532
0.000777567
1.44032
0.000776328
0.0007767
0.000777062
0.00077798
1.8385
0.313468
0.000776846
0.000777938
0.000776123
0.680661
0.0834449
0.000777022
2.06109
0.714342
0.0993846
0.000776381
0.000776813
1.12705
0.776195
0.000778043
0.000779834
0.000780338
0.00077755
6.52362
0.000775485
0.503579
0.000779288
0.000778322
0.000777337
0.000776691
0.000872919
5.92532
0.000778229
0.000777487
82.5147
0.113926
0.621779
0.000778482
3.50601
1.06633
0.000776867
0.000778334
0.000777913
0.903214
9.02996
0.000776721
0.00191658
1.79811
0.000778079
0.00101555
2.05376
0.000776382
0.000777323
0.000783902
0.000777697
12.4834
0.000777203
0.000777519
0.199073
37.4211
0.00128932
0.0014113
5.40283
0.000778225
6.09541
0.482991
0.000777495
0.855835
0.398723
3.96551
2.42459
2.9367
2.96262
0.000777468
2.83432
0.62825
0.000988191
0.00077782
0.000778538
0.000776831
0.000778036
0.000777564
0.000776194
0.00077824
2.03616
0.000778147
0.000777349
0.0148707
0.000778302
0.00077635
3.01777
0.109736
0.00191428
0.00092037
0.000777475
0.46927
13.536
0.627297
0.000777579
0.000778019
0.000775323
0.312842
4.66268
0.00283756
0.000762677
0.88124
0.000777478
2.04387
0.000817457
0.000777805
0.20866
0.00233512
0.000777186
0.0329369
0.000777033
0.000777935
0.22582
3.13617
3.94354
0.000778031
0.000777337
0.000778323
0.000777493
0.000782172
0.0014027
6.80849
0.000778323
0.000778289
5.43852
0.000777486
0.000776876
0.127731
0.0007782
3.8759
4.14463
0.000778269
0.000777993
4.53933
1.49608
4.35652
1.79189
0.000776376
11.0261
0.816579
0.00341484
7.09014
0.0224857
0.818358
0.000778018
0.000777836
0.000688435
0.420464
0.00299081
0.000778299
0.187044
0.618097
8.24667
0.0904523
0.000778323
0.0548796
0.502299
2.12674
0.000778323
0.000777383
6.71986
0.000777787
0.000783686
0.183697
0.000783976
11.5784
3.67432
0.00381321
0.00122699
0.000777523
0.000777625
4.26668
0.338859
0.00077385
0.000779163
0.000778323
0.234057
0.000782524
0.0462069
23.4038
0.000778489
0.438799
2.48815
0.0914937
3.74081
4.73023
2.36378
0.000781874
0.747813
4.32583
2.13939
0.00150873
0.000778206
4.30426
0.000777234
0.000737858
0.00289589
0.499674
0.644208
2.61428
0.0025068
0.779067
5.11662
0.000776677
5.12875
0.00272597
0.786187
1.97173
0.000777757
0.84046
0.352782
2.96675
0.0030722
0.000778328
0.78857
0.000778323
0.00195669
1.30425
0.00171805
0.000777966
0.62781
0.298711
0.000777422
9.83719
0.000778323
0.000777488
0.000777433
0.000777326
0.841391
0.00164465
0.000778323
0.180597
0.502451
0.000777708
0.000777502
33.7223
0.000778737
0.000778322
0.000776136
4.33749
3.30644
0.000777601
8.29526
0.000778323
2.63013
0.271178
0.000786974
0.646397
1.31566
0.0479773
0.00513328
0.000777708
0.490507
9.92074
0.213753
3.75324
14.6597
0.00193805
3.72093
0.000777746
8.3433
0.000775946
0.620922
0.000776971
2.80542
0.000776743
0.00188373
0.00110569
1.16606
0.399778
0.00184051
0.000777287
5.63069
0.586878
0.000778751
0.000778323
2.52575
0.115087
0.000774259
0.840835
0.000776453
4.91229
1.96829
0.846899
0.000775022
0.000778013
2.61494
1.48389
0.00222192
0.000776534
0.00234495
0.000778448
0.000777139
0.371042
0.000778323
0.66159
0.597393
0.000776616
0.804948
0.000777102
1.9029
0.657224
0.000778323
0.00346204
0.704452
0.000778331
0.000778323
0.000776807
0.263205
0.000776929
0.000780068
0.000779468
0.00264939
0.000779917
0.000784312
0.000776543
0.000777534
0.000777941
0.000777033
0.00077696
0.000778986
0.000776836
0.000777872
0.000778375
2.56788
0.000778615
0.000777517
3.04481
0.000143072
0.00077645
0.000777786
0.000775746
0.000778323
0.00246682
2.15483
0.000777728
0.000776792
0.000781019
0.000904558
0.309161
0.191498
0.00346687
0.53557
5.55343
0.000777836
0.000777551
10.1654
6.2473
0.00218921
0.837246
0.000776501
0.000777189
1.09508
0.00243513
3.81761
0.00225465
0.00279346
0.00150163
0.000777567
3.98901
0.000776857
0.000778352
0.00273482
4.70074
3.2274
0.490612
4.10887
0.00171608
0.00163148
0.00753454
0.000774135
1.95009
2.45438
0.00167627
0.798179
0.000778148
3.2887
0.00077882
0.000540958
0.000782057
1.22726
0.000778314
5.05391
0.000780926
0.000777479
0.00251045
3.26658
0.409877
0.000899707
0.000776963
0.000777151
5.04986
0.000777211
0.000778323
0.304261
0.000778323
2.18856
0.000775718
0.000778359
0.00079275
0.000777201
0.000777353
0.000778323
2.20212
0.000778411
0.547453
0.262167
0.000777196
0.000777784
0.000777511
0.000777461
0.000779559
0.000777729
4.41217
0.000778641
0.000777403
0.000778323
0.00249673
0.511123
0.000777347
0.000782075
0.000777077
2.55088
0.000771937
0.000777157
0.000776601
0.000777128
0.00077708
0.767382
0.000777615
0.000777852
0.000777046
2.14361
0.000779706
0.000778103
0.000777639
0.758456
0.000779412
0.000782344
0.48494
0.000776854
0.00078396
0.000775592
2.83448
0.000776695
0.00077732
0.000700049
1.9528
4.25877
0.000777235
7.27144
6.84482
5.49688
0.000776985
7.01619
0.337086
0.00195146
0.00077702
8.86412
6.27056
0.00077791
0.000778185
0.000776825
0.000777001
9.14778
6.07233
0.00077733
0.000778308
0.00074728
0.000777382
0.000779375
0.690433
0.000778106
2.44081
8.68184
0.000778332
0.000805883
0.226788
0.000819477
0.000561561
0.000778114
0.000776696
0.614716
0.000777878
3.4085
0.000777613
0.00079
0.000777767
0.807885
0.00251865
0.000777308
0.000773504
0.000777889
0.000776864
0.000273283
0.000780745
6.33092
0.000776786
0.214292
0.209518
0.00322309
0.000778168
0.193606
0.854468
0.000778059
0.261114
0.103244
0.00326066
0.000777678
0.000777229
0.72622
4.35665
0.204253
0.06467
0.00077812
0.000778323
0.00405595
0.000777807
3.24578
0.000776926
0.000779248
0.0027184
0.0219244
0.000777613
0.000778323
1.12021
0.000778323
0.000777683
0.000778317
0.000778323
1.1319
0.757274
2.04208
0.000778323
0.000778493
0.000776437
6.27812
0.000755918
0.606967
2.44272
0.00254904
0.000777473
0.000777192
0.000777771
0.000778323
3.1269
2.54639
0.000778323
0.000777261
0.00077767
0.000776971
0.641634
0.000778323
0.721177
0.000778323
0.756999
0.00221663
3.0237
0.000778327
0.000777017
0.000778323
0.000786375
0.000782201
0.000787385
0.000778323
0.615487
0.000786556
1.56322
0.621413
1.73987
0.000777571
0.000777384
0.000778344
0.000778194
0.000793395
4.57955
0.000778258
0.000777546
0.000777919
0.799268
1.16959
2.71269
10.6859
5.86231
0.679002
0.00336564
30.9788
0.000765302
0.60329
0.00077249
0.000777036
0.00292388
0.18583
0.687127
0.00611219
0.000776106
0.677383
0.90581
0.000777661
0.000777768
0.000780799
0.000782377
0.000777225
0.000778156
0.00204417
0.30425
0.000778225
2.37205
1.31718
0.000777404
0.000778323
0.000778323
0.000777102
0.000777389
0.000777038
0.000780798
0.00262348
2.38468
0.00078141
1.61609
0.539875
0.000781185
2.09153
0.731436
0.00077692
0.0018534
1.04194
0.000885161
0.00204929
0.0019958
7.27941
0.894986
0.000776578
10.0357
0.000778023
0.0007779
0.224039
0.000776913
0.000777182
0.000778112
0.000778327
1.34537
0.000779388
0.00077697
0.000776713
0.000778323
0.000776771
0.000777182
0.000777266
0.000778137
0.823464
0.000777767
1.15535
0.000776684
0.000831435
0.000786004
0.000777239
35.4268
0.000777215
0.000776979
0.533885
0.000381754
0.000777476
0.000775468
0.0249835
0.0126876
0.305978
0.000771644
0.000778323
14.2748
0.000777025
0.00077735
0.000777128
0.169093
0.00077751
0.000778706
0.000777698
1.00073
0.00181795
0.00077715
0.00187996
0.000777706
0.833869
0.0025589
0.000776441
0.35558
0.000778336
0.000777389
0.000776379
0.000777238
0.000777185
0.000777406
0.00198255
0.000777438
0.000776844
0.000809846
0.829995
5.38318
0.00077921
0.000782108
0.00300226
0.000786282
0.156288
0.59266
0.0347221
0.000801279
0.000778279
0.00193996
0.000777332
0.00074506
0.000779737
0.893271
0.515552
0.00223109
0.662057
0.961219
0.000778139
0.00077834
1.05585
0.000777353
0.000777813
0.0659374
0.00227992
0.000777926
0.000777621
0.000433444
0.000777526
0.000777616
0.000778196
0.000778323
0.000777359
0.842483
0.000777494
0.00077701
0.000777853
0.000778212
0.000778323
0.170468
0.211191
0.00276425
0.000777277
0.00174624
0.00462818
0.000778036
0.000777258
0.000777881
2.9173
0.657383
10.6842
0.000777472
3.67044
0.000777479
0.000777205
0.299654
0.550482
0.000776695
0.000776309
0.000778323
0.000777659
0.000776894
0.000777381
0.000777174
0.000777366
1.45794
0.0666146
0.934558
0.000778173
0.000778136
5.38692
0.000778091
3.66621
0.000777129
0.00173011
0.000778635
0.000778315
0.000777001
6.32036
0.134273
0.000765401
0.000763116
0.000777646
0.000778323
0.000299121
0.000777404
1.0977
0.00202453
3.9542
0.579748
0.000778323
4.52321
0.000778323
0.000778011
0.000778323
0.000778323
0.000778452
0.000776964
0.784258
0.000777321
0.00473516
0.000778323
0.000774346
0.000777087
15.7843
0.000778841
0.000776672
1.4552
0.770849
0.000777528
0.000777327
0.000777239
0.000777717
0.0593666
0.000777303
0.766424
0.000776327
0.000777806
0.0197337
3.86044
0.00077644
0.000776086
0.00077754
0.000801902
0.000778323
0.000778323
9.46471
0.000777513
0.000778323
0.00188179
0.000778323
0.000778911
0.000777945
0.000778338
0.000777136
0.00471227
0.000776699
0.000782111
4.52593
3.42202
3.18427
0.000778292
0.00077715
47.9255
0.000777125
0.000793995
2.00412
0.000778212
0.25343
0.255556
1.71558
0.720673
0.000777604
0.000777277
0.000777382
0.00077832
0.00077715
0.638708
0.000777469
0.615972
0.000777394
1.69261
0.016208
0.000777542
2.17578
0.000777212
0.000777458
0.000960131
39.1839
0.903313
0.000778323
0.512593
0.000776514
0.000778323
0.000777506
0.000777646
0.000777558
0.000778323
4.33112
0.657913
0.000798725
0.000778253
0.00078334
0.000778218
9.37575
0.000778323
3.85403
0.000777016
0.000778323
0.00076936
0.00224248
0.000778063
7.86608
5.41026
0.000776902
0.000776938
0.00077753
1.54005
0.000777352
0.000777269
0.000777374
0.602531
0.000779963
0.000778323
0.000778826
0.527011
3.37589
0.393973
4.45944
1.86689
8.36614
0.000777955
0.000776745
0.000776499
6.59568
0.000778244
0.000778009
3.61732
0.00142817
0.214916
0.00077811
0.000777792
0.700348
0.644042
5.32466
0.000778228
0.000777586
1.5342
35.7552
0.0111129
4.36044
0.129568
0.000777229
0.000776205
6.23856
0.000777843
0.000777375
0.0022084
4.53195
0.00192687
2.13473
0.715055
4.13282
0.000777452
0.315879
3.94279
0.000777477
0.000777792
6.32145
0.000780804
0.000777833
0.000777579
0.000777854
0.000785409
0.00804363
0.000778464
4.7773
0.000778423
0.000778323
0.00077803
0.000769632
0.00148287
0.0920386
0.00077762
0.000776523
0.000776702
1.23918
4.45254
0.000777209
0.000776758
0.000720047
0.000777207
0.000557657
0.000776995
0.000776913
4.26124
0.000782695
2.63881
0.00077828
3.34624
0.000777983
2.20413
2.25941
3.79891
0.000777075
0.000791147
3.43194
0.000777382
0.000777547
0.000777819
0.000778069
2.19921e-05
0.0299847
2.78051
3.2652
3.06904
8.65118
0.00208898
5.50713
0.00234472
0.00233802
0.000776744
0.000777866
0.00291529
0.000777969
0.00179608
0.00077666
0.00077652
0.000778221
0.00233272
0.000778294
0.000788913
0.00206366
0.000777766
0.000778038
0.00077677
0.000778146
0.000775923
0.0007782
0.498443
0.000777331
0.000778082
3.57132
0.00077831
5.82448
6.0229
0.672258
6.65736
0.660348
6.77586
0.732265
0.000778323
0.000778323
0.000778635
0.584396
0.000778322
1.5987
0.000777645
0.000777615
0.000777039
0.000777671
0.000777409
0.000778458
0.000776899
0.000760372
0.000777063
0.773383
0.00077773
0.000777769
9.68827
0.000780577
0.00077807
1.63831
0.559455
0.000777264
0.000777718
0.000776882
0.96715
1.02522
2.39142
9.54553
3.06197
0.000777428
0.000777909
0.000777247
0.000776523
0.000778128
0.000776899
0.00210305
0.000777346
0.000777837
0.000777389
0.000779616
0.00077806
0.000777824
0.000777735
0.00077924
1.72612
1.55057
4.1119
0.0365289
0.241756
0.000777256
0.000777905
3.83157
0.000731731
0.000776925
4.30641
0.00240337
0.000777646
0.000777691
0.00396981
0.743559
0.107265
0.000777389
0.000778323
0.00221189
2.89546
0.000778323
0.000778518
0.000778323
0.0337429
11.4472
0.00078237
0.00236984
0.000777395
0.000778333
0.000777377
0.000778112
0.000777495
0.000776683
0.000777956
0.000777675
0.000776939
0.000777236
0.000777078
0.000777429
0.000777167
0.36151
0.000777178
0.0376451
4.01764
4.09386
3.74304
0.670435
0.731523
1.19693
1.29755
0.000778323
0.000775778
0.000798749
0.104469
0.3292
0.570592
0.127062
2.74895
3.08747
3.85338
5.78053
0.00191892
0.000907748
0.000780587
3.011
0.295012
5.1758
0.000777877
0.00077838
0.000776867
0.000775481
0.610795
0.810132
0.0130225
7.79333
0.000781105
0.000777011
0.000777289
0.000777543
4.29377
0.0012968
0.000776403
0.000776978
0.970729
0.000297723
0.000777414
0.000777824
0.000780228
0.000777859
0.000777814
0.000778342
0.67324
0.000772566
0.000777659
0.000776397
6.49118
0.000778205
0.00131711
0.000795998
0.000777979
1.60326
0.000777628
0.000782848
0.000777574
0.103647
0.314687
0.822611
0.000777444
2.2825
0.000777473
0.000777375
3.74329
1.15535
1.08124
2.61463
0.87024
0.000778323
6.42508
0.000777207
0.000778323
0.000778323
0.000777653
0.000778323
0.106761
0.000777726
0.193317
3.22612
0.000777955
0.000777741
0.0023621
0.000779953
0.785968
0.000778139
0.00644958
0.000778119
0.000775681
4.78694
0.00077841
0.000777467
5.66162
0.000777733
0.000777705
0.000778121
9.2689
1.91752
0.000777762
4.35753
0.000777867
0.000778151
0.000777013
0.000778346
0.000777777
0.000777527
0.000777663
0.000778323
0.000777924
0.00077967
0.0205848
0.000778197
0.000313818
0.000777012
0.0044404
0.00254023
0.156084
5.15941
0.000778323
0.000778323
0.000777047
3.30279
14.0885
0.000778323
0.00077968
12.7262
7.72095
0.414008
2.12436
2.64749
0.000777635
0.571398
0.600757
0.000779925
0.000777024
0.000777259
0.000781733
0.796134
0.00075234
10.6398
0.000778128
0.000777755
0.442175
42.4399
0.00077912
9.35075
8.93161
0.000776185
0.000777577
0.00231327
0.000777535
5.1171
0.00227312
0.00237422
0.00253913
0.000778138
0.000777803
0.753832
0.00802978
0.000783828
0.000777365
0.000777751
0.000777721
0.000776861
0.000777073
0.629671
0.427811
0.156546
0.000777959
0.000778165
0.000778273
0.00077722
0.000779847
0.000777343
0.000785615
0.00078647
0.59713
0.000777331
0.500477
0.630246
0.000777736
0.000777908
0.000778177
2.34351
0.000777376
0.00078629
2.29191
0.773348
0.000770983
0.000778211
0.000778358
0.000778314
0.000778628
3.39763
0.000782915
0.000777951
0.18487
4.65617
0.000777037
2.19175
0.000769837
0.00442821
0.000893525
0.000777976
1.2321
0.000777644
0.000777234
0.000777804
0.000778041
0.000778798
0.00077688
0.00309635
0.000779057
0.00121061
0.000778525
0.113995
0.000782173
0.00077802
0.000780556
0.000780932
0.00275249
0.560838
2.44045
0.000780406
0.000448964
0.00203982
0.000777608
0.00285471
0.838352
6.52292
0.00237682
0.257158
0.000777608
0.00309777
3.88274
0.000777086
1.01858
1.09366
2.02099
0.00234268
0.00251144
0.41862
0.000778479
0.000780809
0.0214529
13.0207
0.000790457
0.000777722
0.067347
0.000782511
0.000777896
0.00250601
0.827137
9.12967
0.000778109
0.41901
0.000777333
0.419169
0.000772315
0.000778414
0.997329
0.000777653
0.00269376
7.1791
0.0652505
0.00253434
3.811
0.000781311
0.0729784
0.000777507
0.76365
0.627061
0.00191024
0.000781886
0.000893039
1.72016
3.77259
3.20564
0.000782696
0.000783554
3.9507
0.00077765
0.000777734
5.25009
3.9806
0.00236332
0.00077777
0.000777903
0.000777406
0.754839
0.000776788
0.000776986
0.000777326
0.115054
0.000779654
0.000778323
0.0546691
0.00282298
0.000777798
0.000777216
5.36194
3.998
0.000777714
0.000778381
0.844618
0.258088
0.000776745
0.347973
0.00309635
0.00259547
0.815468
0.000777418
0.219232
0.00200002
0.000778226
0.000779914
2.32435
0.0645607
1.76916
0.000778285
10.9845
0.411775
0.0151935
0.478099
0.0244609
2.52972
2.14798
5.83855
0.477586
4.08968
0.672748
0.000777243
0.000788187
0.702618
0.000777579
0.000778466
0.642783
0.248727
0.000776798
0.000777645
0.000777407
0.000777323
0.00225935
0.636468
0.000776725
0.259119
0.000777827
0.000778064
0.455975
0.79999
2.17225
0.000780507
0.974665
14.6427
2.14421
7.82985
0.000778324
0.00077771
0.000776864
0.000777793
0.00200699
0.00242576
0.00077768
0.000776639
4.35075
0.723429
0.00320119
8.58565
0.638223
8.50765
0.00208455
1.35173
0.000785713
3.31071
0.00208747
0.64506
0.000784276
0.000778323
4.55958
0.000778323
0.00077833
0.000777152
0.000778323
0.000778323
0.00168067
0.62974
0.0801949
0.000778323
11.8379
8.28155
0.00166052
0.000777391
0.000777199
0.000777797
0.000778287
0.109899
0.000778576
0.874993
0.874371
0.000777488
0.00077831
7.34078
15.5853
1.23424
0.79205
0.000783997
0.00268344
0.736478
0.000778323
0.000778323
0.000777125
11.3824
0.000777628
0.000777979
0.000778102
0.000776963
0.0018469
0.0007814
0.000779746
10.5307
0.00120638
0.00350912
0.000773793
0.671568
0.752727
3.37423
0.000127722
0.000776619
0.884969
0.000776836
0.000778278
0.000780917
0.877764
0.000777281
0.00193536
0.781866
0.000778323
0.000777723
0.6051
0.000778222
0.000777543
1.43348
0.793341
0.000782392
0.801929
0.000778005
0.000778257
0.000778183
0.000778323
0.000776936
1.15916
0.000777942
1.09841
0.00206871
0.000778323
0.000778323
0.386352
0.000780669
0.574116
0.00210646
0.000778323
0.000777707
0.000778342
0.000777344
0.00163156
0.665085
0.000777527
0.00189468
0.680715
0.000776986
0.000778323
0.00173326
0.000779598
0.000778334
0.00175797
0.00169718
0.000778236
0.000778339
3.19616
0.610162
0.00186389
0.623802
0.758998
0.000794199
0.806974
0.000777686
0.000777675
0.000778224
0.000777355
0.000778323
0.000785764
1.08226
0.000778343
0.00196141
3.30302
0.00221276
0.00077723
0.000777371
0.570332
0.104243
0.00196164
0.698589
0.000777676
0.127087
0.000776736
0.000776655
0.000778317
0.000780516
0.562338
0.000778338
0.7564
0.00078161
0.000778323
0.000778323
0.000777717
0.0018691
0.00162474
0.625
0.999513
0.000778323
0.000778323
0.885195
1.70776
0.000778323
0.000777446
1.10084
1.0773
0.000359082
0.786987
0.00053946
0.000778352
0.000778323
0.000778323
0.000776901
0.0016692
0.835075
0.900509
0.000778327
0.000777259
0.00177875
0.000787509
0.622373
0.000777954
0.000777081
0.000777573
0.00189582
0.00171429
0.00221267
0.000778039
0.0018855
0.733838
0.000778172
0.000777562
0.00075438
0.724949
0.00078533
0.000778084
0.000777748
0.00077748
0.000778323
0.722073
0.00213136
0.00077834
0.000778323
0.927765
0.000777301
0.000778306
0.512925
0.518253
0.00198034
0.000777977
0.000778323
0.00195254
0.000778323
0.000778317
0.000775169
0.000780825
0.00077832
0.000778323
0.000778323
0.00077832
3.39337
0.000778323
0.000778312
0.00533997
5.03333
1.05552
9.87921
3.0955
0.000777709
0.514576
3.77283
2.99209
0.00174769
4.26006
0.000779816
0.66467
3.59345
0.154583
4.33247
0.00238991
3.70654
0.0988139
0.805972
3.62231
0.00077678
0.000778323
0.0219955
0.00077802
9.57851
7.09976
0.322658
1.54292
3.24565
7.55236
14.5884
0.526735
5.04469