/*--------------------------------*- C++ -*----------------------------------*\
| =========                 |                                                 |
| \\      /  F ield         | OpenFOAM: The Open Source CFD Toolbox           |
|  \\    /   O peration     | Version:  2312                                  |
|   \\  /    A nd           | Website:  www.openfoam.com                      |
|    \\/     M anipulation  |                                                 |
\*---------------------------------------------------------------------------*/
FoamFile
{
    version     2.0;
    format      ascii;
    arch        "LSB;label=32;scalar=64";
    class       volScalarField;
    location    "0.45";
    object      epsilon;
}
// * * * * * * * * * * * * * * * * * * * * * * * * * * * * * * * * * * * * * //

dimensions      [0 2 -3 0 0 0 0];

internalField   nonuniform List<scalar> 
32842
(
0.0346672
0.0346643
0.034662
0.0346614
0.0469646
0.0346535
10112.1
6746.44
0.034662
0.0346381
891.957
620.372
0.0346338
0.034662
0.0347764
0.0346115
0.0346266
0.0346479
0.034645
0.0466048
0.0482651
0.0504918
0.0462154
0.0346625
0.0463654
0.0346614
0.0346555
0.0427845
2.61624
0.0346594
542.705
0.159032
247.784
0.0346766
662.667
13312.9
0.04947
0.0348014
0.0346623
0.034667
0.0346586
0.0480332
0.034662
0.034662
0.19795
0.0346717
370.547
0.0345981
0.047589
0.431792
815.758
0.034662
0.131908
6.60532
0.0346623
0.154188
0.0346607
35.1407
0.0346621
0.034662
2514.94
0.13532
0.122884
0.0480639
0.0346279
190.635
0.0346621
0.11735
0.173941
0.0347946
0.0421056
20.9327
0.153339
0.034662
0.0346619
0.034615
0.196651
0.0346619
0.154235
295.924
0.0467983
0.0346618
0.0346619
0.14112
0.104939
0.034662
0.034662
0.133843
0.256706
0.0346202
0.0474496
0.0475471
98.1839
0.0346955
0.03466
0.0346495
0.158897
0.0347259
0.109866
0.034662
0.034662
0.0536312
0.0348994
152.975
0.155432
0.167054
33.9956
0.0341343
0.139661
0.0346827
0.0346328
0.0346273
175.697
0.0346282
0.0348928
0.0477489
0.143973
105.976
0.0347955
0.0346411
0.0346344
0.0346294
0.323662
0.0346613
0.0335189
0.156703
0.183694
0.034682
142.961
0.0346617
0.0346618
0.0352247
0.0590138
0.145824
0.0579615
0.0346449
0.0181756
10.1691
0.034645
0.0346695
0.145177
0.0346543
0.147112
1.04327
0.0346548
0.0346438
1076.27
0.0346405
0.034662
0.0346365
0.0364747
0.352747
0.0453684
328.177
0.0346262
0.034662
0.0346618
0.03464
0.0346577
0.0346318
0.0346545
0.0346619
0.0459309
0.0346619
0.0346213
0.0346575
0.0346619
0.0346204
0.0347254
133.522
2.62798
0.0540997
43.1962
0.034662
0.0484568
84.1854
0.0346475
0.0348769
0.034662
0.0346192
0.0427184
0.0346296
0.0346271
0.0346581
0.143262
0.0346204
0.150756
0.0346284
0.03466
0.0346396
0.0346454
0.206883
0.176483
0.0346619
0.170639
0.0346583
0.0346727
0.0346668
0.158389
0.0346257
0.0346459
0.0348401
0.432751
213.18
76.037
0.080111
0.0346374
0.0482485
0.166015
0.0346592
0.034653
0.0351383
61.026
53.1564
0.0346422
0.034662
0.0346576
0.034693
0.0346582
0.0345996
0.119077
0.03466
0.0346338
0.0346537
0.0531381
0.19544
0.0346623
0.16541
0.034668
243.454
0.0346257
0.0346394
0.0346275
0.0346599
126.671
0.0468687
0.047282
0.142945
0.0346714
0.137175
0.689582
0.0346674
0.0346572
277.689
0.0346302
0.0346389
0.128993
0.0346544
0.0346566
0.0347016
0.034662
0.0346549
0.0346159
0.160983
0.0346962
0.0346522
0.0346227
49.6205
0.0346409
0.0346385
0.0346472
0.034662
0.034662
0.0346565
0.20393
0.0346545
0.0346351
0.0346401
0.0347708
0.0346624
0.0346328
0.161603
0.0346444
0.197832
0.0346525
32.2497
0.0346577
0.0528645
0.0346604
0.034651
0.0346377
94.2759
213.642
0.034662
0.0346642
0.135297
63.7465
0.034662
0.0481548
0.034662
3496.48
0.0346623
0.174034
107.667
0.329025
0.0341255
0.174788
0.0346356
0.034645
0.0457413
1232.54
0.0346611
0.0346359
0.0346913
0.0346617
0.034662
0.034662
0.034662
0.0346517
0.133732
0.0346866
0.034662
0.138803
0.0346285
0.034662
0.0346423
0.0346674
188.461
0.0346239
0.0346778
0.0346596
0.305091
0.0346494
0.0391975
0.0346624
0.034648
0.0346526
0.0346623
0.0346439
0.034662
0.0346182
0.155424
0.034662
0.034662
0.0346468
0.034661
0.0847854
0.174193
0.034662
0.034634
0.0346545
0.0346629
0.0396266
0.0346619
0.134986
0.034662
0.0346614
0.16299
0.118139
0.146879
0.034976
70.1437
0.0346568
0.158936
0.0346407
0.0346233
0.0512757
0.0346619
0.0346325
0.0346449
0.034662
0.034662
0.0346661
0.479707
0.0346485
0.0347023
0.034662
0.034662
0.0679196
0.0453737
0.0346619
18293.4
0.0346205
0.0554253
0.034662
0.140207
0.0520769
0.034662
0.0216165
0.0460185
0.0346521
0.132429
0.15809
0.0346654
0.0346618
0.0346624
0.0346618
0.034657
0.0346579
0.034639
0.03464
0.0346547
0.0346415
0.0346596
0.0346539
0.034662
0.0346606
0.0346576
0.0346569
0.0346101
273.379
0.034662
0.034649
0.0347149
104.965
0.0346663
0.0346795
0.0555246
0.0346601
0.0493834
0.180257
0.0346227
0.034662
0.0346626
0.0346257
0.0346694
0.034647
0.0346416
0.0346236
1999.77
0.0346482
0.152289
0.0346616
0.0495365
208.134
0.0346614
0.0346253
0.034662
0.0330709
0.0346622
0.0346357
0.034662
0.0346608
0.15293
0.0466568
0.079963
0.0346655
1052.84
141.425
0.145029
0.0484358
2.11541
0.0489538
0.142884
0.0346838
0.0346405
0.0405064
0.0346623
0.0449729
1.45379
0.0346625
0.0346541
0.0347327
116.184
0.0443382
0.0346776
0.0346618
0.0472849
0.0346144
0.0348125
0.0347041
0.0488825
0.0346619
0.0346621
0.034662
0.0346168
0.0346322
0.141349
0.0346463
0.0348022
0.034662
0.0490463
0.0470044
0.034662
0.0346471
0.14091
0.150253
0.034662
0.0346623
0.034662
0.034662
0.0468357
0.0346244
0.591006
0.141151
0.0346172
0.0346623
0.111394
0.0349607
0.034662
0.0504635
0.034913
0.0408208
0.0354274
0.143899
0.0483729
0.178846
0.139344
0.0377843
0.034658
0.0502569
61.2715
0.0346367
0.148832
0.0512562
0.110251
0.0444269
0.034635
50.1018
0.0504108
0.0346429
0.153714
0.034658
0.149788
0.0346441
0.0346623
0.0524396
0.0557918
61.8537
9362.63
34.3812
54.4938
38.7845
23.7713
103.141
0.146874
0.0346548
0.0346374
0.0346214
0.14198
15.3143
0.123483
0.797625
0.034653
0.0346185
0.0445439
3.61805
0.0346622
2231.96
51.8041
0.0348501
268.377
0.0274747
14.0318
0.0347301
0.034662
0.0346525
0.147132
157.949
0.034662
0.0492076
0.034719
0.0308806
0.174178
0.0346368
0.0346612
0.034627
0.0346588
0.492163
0.0831173
0.034662
0.034662
0.0346725
0.153375
0.0842618
0.114502
0.0346652
0.0346239
0.034662
220.079
0.139858
0.183056
174.737
0.176422
0.0346606
16.5878
0.176913
0.0346509
429.447
0.0346621
0.0468824
0.034662
0.0458145
0.0471574
0.0460391
0.034662
0.0346466
0.0346338
0.0346512
0.140773
0.0489111
0.0346622
0.0346412
223.628
0.0346602
0.0670615
224.256
0.121341
0.03471
0.034636
159.068
214.078
554.94
0.0346638
41.6272
0.0992268
0.232622
0.0351314
0.291584
0.0346622
0.0346319
0.0346624
0.034662
0.034662
0.305931
0.0472517
0.0346337
0.034662
0.0346461
0.034662
0.0346099
0.0346436
0.0346509
0.109989
0.114766
0.0346485
0.034662
0.193683
0.219767
20.7421
0.0346545
0.168557
0.0346355
0.034662
0.0347554
210.15
0.155556
0.0346612
0.0489709
0.0346616
10.3183
0.034662
0.034662
0.0346622
0.0346569
0.101434
0.034662
0.034662
79.4798
7.52551
0.0344312
0.0346673
0.0346259
0.176019
0.103191
0.034662
0.150848
0.0476876
0.034662
0.0346594
364.768
267.363
0.034662
0.110956
396.927
0.0346545
0.113296
0.0346414
0.034662
0.0504939
0.051247
0.0360687
0.0346464
441.583
0.0346611
84.1451
0.0346449
0.0346614
233.191
307.675
5.65526
0.857187
0.034662
0.0346709
0.0452543
0.0463107
290.74
333.775
289.846
333.027
0.0345878
0.0350408
254.326
0.034641
5.24219
0.0346432
0.0347642
0.130551
318.059
0.0347086
0.0346699
0.0346448
0.0346317
0.0346497
0.034662
0.034641
0.034662
0.034662
0.136271
0.034662
0.0347258
0.034662
0.088146
0.0346249
0.0346694
0.0346555
0.166168
0.0346594
0.0346306
0.0345338
0.0346375
0.0346556
0.0346622
0.0365359
0.0346825
0.034652
0.0346907
0.0346378
0.0159599
0.0347237
0.0500822
0.0400142
0.0488444
0.0346618
0.0516231
0.0575912
0.177656
0.0346261
0.0346561
0.0492277
0.516509
0.034662
0.188925
0.0489881
0.034662
0.034662
0.0379697
0.0346769
0.0347182
0.129251
0.034662
0.0346386
0.0346651
0.049544
0.150765
0.0346312
0.05053
0.0346587
0.0451036
240.081
186.165
0.0473526
0.0346711
0.119505
0.0346301
0.034662
0.0346282
0.0346449
0.0347694
0.0345818
0.106308
0.0346619
0.0351302
0.131474
0.0511724
0.0346713
0.0347383
0.034662
0.117108
0.0571499
0.14582
0.0346462
0.179647
0.192703
0.0481219
0.0346623
0.0446769
0.0346423
0.049211
0.0346581
0.0346359
0.0478814
85.6166
0.154447
0.0346516
224.423
0.0347099
0.181428
0.034636
0.034643
0.0346429
0.0346619
0.0346052
0.0347656
0.0346541
0.0346346
0.03466
0.0346547
0.0346436
0.0346483
0.16207
0.0348833
0.138513
0.03465
0.0346564
0.0484443
6.28316
0.0346514
0.0346598
0.0480287
0.03463
0.034797
0.0346995
0.0534678
0.124909
0.034662
0.0346529
0.0347248
0.0346971
0.0346557
0.034659
0.0346398
0.034662
11608.4
0.0346356
5.64617
0.0346519
0.0346461
0.0346146
0.0346583
0.0471491
0.03466
0.034662
0.034662
0.0346385
0.429235
0.034662
0.0346964
0.147966
0.0347107
0.156196
0.0346342
206.67
0.034651
0.0346567
0.119509
97.3799
0.0345326
0.0346554
72.4175
0.051292
0.0346413
0.0346721
0.034662
0.034673
0.0346674
0.156492
8.51887
0.149652
0.034662
0.142547
0.0346208
0.0346286
0.0346667
0.048718
0.0402089
0.034636
0.0346553
0.0346537
0.0346577
0.0347009
0.034662
0.0346784
0.0346406
0.0346199
0.135429
0.0507903
0.034662
0.239953
0.539623
0.0346168
0.0312465
0.0282691
0.034662
0.0346301
0.034664
0.192058
0.034662
0.034662
0.159713
0.0497931
0.0346325
0.034662
0.034662
0.034667
0.0385915
0.412515
0.0346389
0.0346409
0.184941
0.0347217
0.0346808
35.764
0.0346651
0.0346581
0.0346624
0.0346253
0.159672
0.0347025
0.0345887
0.0346508
0.0346573
0.051491
0.034662
0.185133
0.0469417
175.953
0.034662
0.034662
0.0346392
0.0346477
0.0346548
0.034662
0.0337985
190.024
0.044093
0.123018
0.034662
0.0454706
0.0346616
0.034662
0.0347248
0.034662
0.0346882
0.0346563
0.034662
0.0346207
0.0346399
0.0346476
364.015
0.0346446
0.116791
0.0346424
0.137319
0.142211
0.034662
0.045934
0.137927
328.144
273.015
0.245869
0.03465
0.0346624
0.034662
0.0346624
0.368438
0.0346624
0.29526
0.355249
0.231151
0.275357
0.0402695
53.5189
0.034662
4.46891
9398.33
0.0346429
184.645
0.0192008
0.0346229
0.034662
0.0346451
1.38817
0.0346586
0.147806
0.0474107
280.869
0.201901
0.13271
0.0551222
0.034662
0.0346432
0.0346574
0.0346475
0.0348662
0.0346478
0.0346362
0.0346634
7.82739
0.0510603
0.0346513
113.71
0.0346146
0.034626
0.0346626
0.0346606
403.361
1.29903
0.0346311
0.0346587
0.0346087
0.149447
0.226773
0.0346353
2.0255
0.137367
48.8828
0.0346172
0.0346308
295.357
0.135473
0.0346669
0.034687
0.0346902
0.034658
33.5842
0.0346029
0.189865
0.0346702
0.034662
0.0346397
0.0346253
0.0373357
1.82811
0.0346664
0.0346448
580.186
0.256047
0.165147
0.034677
27.0457
282.19
0.0346244
0.0346622
0.0346576
0.117851
29.0234
0.0346176
0.046515
4.06398
0.0346631
0.0409886
3.36901
0.034617
0.0346351
0.0347489
0.0346472
183.793
0.0346392
0.0346571
0.172436
3.46275
0.0414991
0.0411868
5.65532
0.0346689
178.359
0.199419
0.0346453
0.122416
0.26227
19.5097
1.99158
16.6465
12.1962
0.0346437
4227.66
0.163874
0.0318548
0.0346555
0.0346807
0.0346233
0.0346632
0.0346506
0.0346177
0.0346716
165.319
0.0346567
0.0346329
0.134275
0.0346614
0.0347031
358.342
0.392336
0.0547929
0.0394579
0.034645
3.83406
171.969
0.159941
0.0346601
0.0346616
0.0346126
0.94575
103.535
0.0534309
0.0349547
119.432
0.0346478
6.60164
0.0356502
0.0346525
0.58784
0.0508005
0.0346405
0.383833
0.0346338
0.0346575
1.29388
204.461
56.6316
0.0346678
0.0346453
0.034662
0.0346473
0.0350616
0.0371769
3.92653
0.034662
0.034661
43.6289
0.0346507
0.0346252
2.40355
0.0346583
20.613
30.7146
0.0346604
0.0346623
29.2886
14.3765
22.3596
16.8942
0.03461
138.94
42.5395
0.0564739
94.0988
0.020615
0.127396
0.0346649
0.0346556
0.0342374
3.49446
0.057019
0.0346719
1.16825
0.169289
8.67014
1.03426
0.034662
0.60268
2.85527
0.690412
0.034662
0.0346417
14.9563
0.0346547
0.0347724
0.108638
0.0351509
140.854
4.78345
0.0651147
0.0398204
0.0346452
0.0346532
11.3686
0.359741
0.0345838
0.0347914
0.034662
0.354278
0.0347383
0.00186393
591.248
0.0348201
0.653405
84.4077
0.471099
20.4333
41.7387
1147.53
0.0349858
0.140773
30.7887
0.995357
0.0439633
0.0346585
22.469
0.0346406
0.034418
0.0585137
0.140577
0.158693
1.32489
0.0516891
0.128593
5971.55
0.0346247
39.316
0.0546223
0.128375
64.8303
0.0346586
0.121084
0.204417
59.1481
0.0574504
0.0346621
0.134398
0.034662
0.0475535
5258.66
0.0461813
0.0346701
0.163633
0.614041
0.0346501
114.633
0.034662
0.034644
0.0346419
0.0346439
43.7343
0.0455427
0.034662
0.473261
0.213243
0.0346565
0.0347194
3.3884
0.0346853
0.034662
0.0346487
24.1288
10.4179
0.0346516
94.6429
0.034662
93.4379
0.136085
0.0356239
0.158312
15.3168
0.215813
0.0748326
0.0346842
0.648925
26.1459
259.71
169.422
198.295
0.04827
14.7721
0.034647
130.849
0.0347205
0.164193
0.0346503
6.60357
0.0346282
0.0478275
0.0409826
257.25
18.9016
0.0476903
0.0346388
136.835
0.172521
0.0346855
0.034662
76.1668
0.403861
0.0345766
0.127387
0.0346184
2.0102
3.00256
0.127147
0.0345818
0.0346634
7.03333
433.639
0.0483634
0.0346595
0.0517475
0.0346751
0.0346456
24.466
0.034662
0.148506
0.174479
0.0346503
7.82977
0.0346262
383.736
323.784
0.034662
0.0600241
36.1093
0.0346621
0.034662
0.0346253
0.39398
0.0346235
0.0348976
0.0346731
0.0522494
0.0348788
0.0352778
0.0346801
0.0346383
0.0346601
0.0346314
0.0346247
0.0346895
0.0346325
0.0346562
0.0346724
23.6963
0.0347869
0.0346461
247.184
0.0200579
0.0346185
0.0346544
0.0347291
0.034662
0.0509106
8.94646
0.03466
0.0346626
0.0349342
0.0366839
0.419122
242.356
0.0568764
0.182867
67.0564
0.0346567
0.0346511
124.535
79.6141
0.0482
0.121102
0.0346514
0.0346441
254.152
0.0485639
111.228
0.0505609
0.0528627
0.0440096
0.0346549
102.452
0.0346261
0.0346625
0.0528887
85.0267
522.781
0.199216
72.449
0.0462466
0.0453094
0.0893567
0.0345667
155.299
34.5355
0.0458067
177.418
0.0346633
339.635
0.0346882
0.0376178
0.0347375
8.34273
0.0346617
62.9815
0.0347222
0.034645
0.0528112
5.67927
2.48743
0.0354755
0.0346251
0.0346344
18.9375
0.0346364
0.034662
621.07
0.034662
18.0626
0.0346171
0.0346671
0.0349849
0.034642
0.0346443
0.034662
18.8904
0.0346735
2.76934
0.328881
0.0346758
0.0346545
0.0346511
0.034643
0.0346637
0.0346512
58.4894
0.0346817
0.0346477
0.034662
0.0525842
0.194493
0.0346466
0.0347263
0.0346253
153.518
0.0345593
0.0346414
0.0346235
0.0346383
0.034631
0.135338
0.0346519
0.0346558
0.0346366
202.189
0.0347793
0.0346773
0.0346515
0.136804
0.0348675
0.0350573
0.0904624
0.0346299
0.035043
0.0346642
4.89816
0.0346166
0.034641
0.0327023
1.52738
24.0646
0.0346441
97.0223
93.9159
86.9276
0.0346344
114.236
0.0639913
0.0460587
0.0346353
84.0049
56.9253
0.0346653
0.0346572
0.0346379
0.0346359
47.2955
33.1292
0.034638
0.0346615
0.0337911
0.0346463
0.0348626
557.228
0.0346657
215.283
108.518
0.0346622
0.0363507
0.250987
0.0358819
0.0280362
0.0346557
0.0346326
0.165651
0.0346573
146.003
0.0346561
0.0355365
0.0346537
0.125985
0.0524484
0.0346377
0.034574
0.034649
0.0346208
0.0321444
0.0347154
28.1191
0.0346193
0.0443974
0.100646
0.0604765
0.0346648
0.0348234
0.128609
0.0346612
63.3831
2.311
0.0570573
0.034667
0.0346325
0.143725
6.12344
0.468285
0.322857
0.0346652
0.034662
0.0616813
0.0346538
1.9097
0.0346245
0.0346996
0.0504805
0.15057
0.0346501
0.034662
110.667
0.034662
0.0346506
0.0346618
0.034662
7.91863
0.126614
49.6645
0.034662
0.0346764
0.0346176
169.39
0.0360227
443.703
232.531
0.0519693
0.0346433
0.0346351
0.0346533
0.034662
180.631
209.752
0.034662
0.0346434
0.0346496
0.0346253
0.160356
0.034662
0.14561
0.034662
0.140175
0.0497037
3.89878
0.0346621
0.0346242
0.034662
0.0348323
0.034734
0.0348177
0.034662
0.164426
0.0348412
1.17561
8.7956
1.03706
0.0346464
0.0346427
0.0346624
0.0346581
0.0351775
116.517
0.03466
0.0346507
0.0346569
0.134869
2.2228
125.106
134.021
83.9078
0.149285
0.0602276
1732.76
0.0343377
0.16997
0.0345391
0.0346121
0.0559795
0.369458
301.116
0.0824969
0.0346244
0.150444
301.507
0.0346422
0.0346453
0.0349754
0.034756
0.0346433
0.034666
0.0477997
471.497
0.0346484
48.274
336.797
0.0346348
0.034662
0.034662
0.0346334
0.0346341
0.0346251
0.0347197
0.0520449
7.03548
0.0348556
0.490635
92.504
0.0349699
1.55636
0.144703
0.0346956
0.0473634
0.662387
0.0372808
0.048253
0.0488535
4.37551
0.115184
0.0346993
61.197
0.034653
0.0346545
0.10717
0.0346331
0.0346373
0.0346683
0.0346621
63.6328
0.034671
0.0346442
0.0346999
0.034662
0.0346263
0.0346431
0.0346474
0.0347456
0.128072
0.0346454
0.194357
0.0346262
0.0358038
0.0347698
0.0346322
7.92475
0.0346936
0.0346527
0.181268
0.0188918
0.0346525
0.0345929
0.0121825
0.122009
92.9113
0.0365473
0.034662
71.3261
0.0346369
0.0346432
0.0346389
0.259444
0.0346496
0.0346817
0.0346512
22.7084
0.0457559
0.0346404
0.0476848
0.0346554
0.125067
0.0526614
0.0346185
0.19023
0.0346622
0.0346394
0.034617
0.0346319
0.0346281
0.0346484
0.0486019
0.0346384
0.0346295
0.0358114
0.12301
14.4667
0.0346819
0.0351156
0.052462
0.035733
2.74529
0.170131
0.796184
0.0363713
0.034836
0.0485467
0.034639
0.0352142
0.0346879
38.8177
0.185056
0.0495805
0.15644
0.10756
0.0346684
0.0346623
0.0990797
0.0346332
0.0346583
0.282077
0.0484474
0.0346617
0.0346468
0.0307541
0.0346457
0.0346524
0.0346705
0.034662
0.0346453
0.130254
0.0346436
0.0346264
0.034661
0.034667
0.034662
0.0465293
0.0595658
0.0522829
0.0346375
0.0466167
0.0709144
0.0346605
0.0346339
0.0346558
41.6872
0.157944
0.969204
0.0346498
152.117
0.0346429
0.0346351
0.35981
0.185289
0.0346277
0.034682
0.034662
0.0346544
0.0346266
0.0346476
0.0346403
0.0346469
0.425334
6.51758
0.111474
0.0346669
0.0346653
177.156
0.0346654
57.2534
0.0346299
0.0460646
0.0346792
0.0346618
0.0346262
135.969
0.442651
0.0344155
0.0343107
0.0346417
0.034662
0.0188654
0.0346412
0.0974348
0.0479311
41.0372
0.172951
0.034662
64.1053
0.034662
0.0346598
0.034662
0.034662
0.0346736
0.03463
0.131733
0.0346382
0.0646911
0.034662
0.0349273
0.0346395
862.455
0.0346853
0.0346224
483.487
0.134532
0.034644
0.0346437
0.0346357
0.0346513
0.588034
0.034637
0.134047
0.0346343
0.0346537
0.209109
26.9621
0.0346213
0.0337565
0.0346452
0.0366242
0.034662
0.034662
151.638
0.0346503
0.034662
0.0529
0.034662
0.0346893
0.0346634
0.0346623
0.0346992
0.0701157
0.0346171
0.0350979
0.582578
42.6701
3333.06
0.034661
0.0346293
3.91288
0.0346284
0.0350098
404.815
0.0346723
645.167
658.469
372.556
0.140981
0.0346513
0.0346398
0.0346423
0.0346619
0.0346361
0.155807
0.0346457
0.164978
0.0346417
83.5866
0.129572
0.0346488
317.606
0.0346414
0.0346467
0.0389724
5.27008
0.116085
0.034662
8.87484
0.034622
0.034662
0.0346399
0.0346669
0.0346521
0.034662
205.543
0.151204
0.0354425
0.0346694
0.0352649
0.0346588
115.616
0.034662
29.3859
0.0346268
0.034662
0.0344335
0.0497277
0.0346625
40.2872
231.978
0.0346331
0.0346486
0.0346416
26.2177
0.034655
0.034633
0.0346411
63.8842
0.0347162
0.034662
0.0346525
0.141146
85.0421
147.978
222.12
2.35426
104.646
0.0346588
0.0346324
0.0346948
14.1193
0.0346695
0.034662
16.9262
0.0420534
0.451813
0.0346649
0.0346594
0.150115
0.164243
214.502
0.0346591
0.0346515
83.0862
0.917293
0.114105
41.1946
0.610275
0.0346308
0.0346375
46.8046
0.0346547
0.0346361
0.0494213
52.0715
0.0472159
167.753
0.143373
74.0182
0.0346433
0.424858
30.1427
0.0346444
0.0346532
70.1364
0.0347439
0.034658
0.0346419
0.0346587
0.0355077
0.10983
0.0350053
7476.03
0.0346726
0.034662
0.0346649
0.0344702
0.0437748
0.339888
0.0346507
0.0346449
0.0346178
7.249
146.704
0.034643
0.0346363
0.033377
0.0346419
0.0352271
0.0346244
0.0346248
176.082
0.0350995
271.903
0.0346607
14.1136
0.0346593
3.89186
3.63527
21.6913
0.0346288
0.0359646
4.83189
0.0346476
0.0346417
0.0346593
0.0346609
0.0146138
0.0225807
6.98803
84.1887
17.7197
205.734
0.0479383
237.262
0.0490488
0.0513863
0.0346195
0.0346569
0.0511519
0.0346593
0.0457417
0.0346158
0.0347262
0.0346806
0.0498338
0.0346681
0.0357351
0.0493566
0.0346509
0.0346534
0.0346297
0.0346652
0.0346062
0.0346583
0.19901
0.0346379
0.0346634
25.0019
0.0346736
95.0329
120.7
0.153116
61.4842
0.155014
132.015
0.141222
0.034662
0.034662
0.0346809
0.172439
0.034662
215.743
0.0346497
0.0347049
0.0346262
0.0346489
0.0346503
0.0346764
0.0346325
0.0341118
0.0346296
0.133671
0.0346595
0.0346494
81.4867
0.0350064
0.0346634
246.373
0.1836
0.0346351
0.0346504
0.0346215
0.112265
114.401
60.7553
159.337
71.3721
0.0346428
0.0346561
0.034633
0.0346321
0.0346676
0.0346222
0.0478894
0.0346373
0.0346517
0.034638
0.0348531
0.034663
0.0346566
0.0346562
0.0346997
8.02129
13.552
32.9371
0.308689
0.367054
0.0346443
0.0346585
68.9556
0.0335468
0.0346245
51.7314
0.0482939
0.0346522
0.034658
0.0623666
17.9863
1.46996
0.0346459
0.034662
0.0501596
67.2377
0.034662
0.0346776
0.034662
0.302443
33.4394
0.0350957
0.0516305
0.0346396
0.0346621
0.0346405
0.0346685
0.0346512
0.0346263
0.0346605
0.0346498
0.0346256
0.0346366
0.034632
0.0346438
0.0346346
0.104955
0.034635
0.42219
3.19329
69.2178
7.48879
0.153781
0.146139
1.01331
0.833908
0.034662
0.0346182
0.0349319
0.104633
0.265635
0.176971
0.0384466
74.513
279.664
2.49643
14.6551
0.0469899
0.0316787
0.0349215
105.223
1.21567
11.4256
0.0346553
0.0346714
0.0346417
0.0345936
0.161262
0.313758
0.111906
11.0731
0.0348071
0.0346341
0.0346387
0.034646
2.63614
0.0448502
0.034628
0.0346289
0.10976
0.0231493
0.0346396
0.0346567
0.0346789
0.034657
0.0346467
0.0346722
0.148825
0.0345709
0.0346421
0.034618
51.6835
0.0347929
0.0369834
0.0360934
0.0346635
6.99134
0.0346522
0.0347827
0.0346477
0.0700955
106.934
20.5657
0.0346481
0.442536
0.0346463
0.034644
12.0526
0.0910432
323.089
149.774
0.113479
0.034662
5.24538
0.0346357
0.034662
0.034662
0.0347071
0.034662
321.811
0.0346511
0.0666377
3.19159
0.0346649
0.0346526
0.0576767
0.0349566
0.134044
0.0346564
0.0876251
0.0346558
0.0346538
6.94433
0.0346746
0.0346505
224.513
0.034651
0.0346501
0.0346666
152.717
25.9965
0.0346521
3.47329
0.0346555
0.0346683
0.0346292
0.0346624
0.0346573
0.0346461
0.0346545
0.034662
0.0346593
0.0346859
0.141382
0.0346603
0.020303
0.034652
0.071181
0.0496885
0.150443
128.249
0.034662
0.034662
0.0346364
25.4795
80.7292
0.034662
0.0346821
206.559
41.2794
0.141298
559.041
1.88564
0.0346499
0.171797
0.171193
0.0348929
0.0346356
0.0346419
0.0348318
0.132397
0.0340437
66.2481
0.0346561
0.0346517
602.549
263.686
0.0348135
60.2483
212.708
0.0346243
0.0346885
0.0517581
0.0346482
256.571
0.0502287
0.0501765
0.0525857
0.0346697
0.0346589
269.139
0.0853958
0.0347524
0.0346462
0.0346537
0.0346514
0.0346211
0.034627
0.160116
525.321
0.0225322
0.0346511
0.0346695
0.0346605
0.0346415
0.0349246
0.0346461
0.0348056
0.0355181
2.45721
0.0346443
0.183239
0.16489
0.0346467
0.0346875
0.0346697
266.759
0.034634
0.0353607
0.429048
0.139978
0.0345462
0.0346586
0.0346758
0.0346705
0.0348515
150.878
0.0352128
0.0346647
120.753
24.9127
0.0346391
103.855
0.0344615
0.0172422
0.0370028
0.0346598
0.0879958
0.0346514
0.0346424
0.0346632
0.0347845
0.0348394
0.0346992
0.0542436
0.0348959
0.0481616
0.034811
0.0734454
0.0350627
0.0346625
0.0348886
0.0347196
0.0548029
0.178373
130.324
0.0353651
0.0347587
0.0481016
0.0346483
0.0534027
0.120723
4.64247
0.0517714
0.147924
0.0346529
0.0580974
1.21245
0.034629
321.828
194.885
0.977999
0.0511214
0.0490761
0.222738
0.0346742
0.0346883
0.0199236
69.942
0.034217
0.0346565
0.225704
0.0347639
0.0346614
0.0527668
27.286
535.503
0.0346636
0.202401
0.0346433
0.202818
0.0345917
0.0346743
0.0973972
0.0346668
0.0540257
8.79391
0.0470862
0.0519714
110.63
0.0349945
0.460354
0.0346581
0.141489
14.4283
0.0466324
0.0347482
0.0344309
237.814
64.1435
8.88135
0.0347414
0.03475
61.2714
0.0346576
0.0346571
23.4171
13.2207
0.0511322
0.0346546
0.0346615
0.0346445
0.140108
0.0346262
0.0346334
0.0346322
0.122827
0.0347061
0.034662
0.0225352
0.056653
0.034657
0.034642
72.1523
41.7735
0.0346777
0.0346738
0.106307
0.345902
0.0346395
0.225701
0.0525249
0.055228
7.88528
0.0346462
0.0901287
0.0472666
0.0346678
0.0346928
3.47687
0.122355
1185.94
0.0346736
194.104
5.611
0.220238
0.197308
0.0332578
2.41379
4.98156
61.6014
0.200544
24.3165
0.148277
0.0346432
0.034861
0.149649
0.0346482
0.0346792
0.160993
0.909431
0.034634
0.034731
0.0346476
0.0346451
0.0495504
0.162208
0.0346271
49.3571
0.0346586
0.0346645
4.02568
0.12977
38.7776
0.0349352
0.113986
169.127
2.89617
56.674
0.0346583
0.0346562
0.0346454
0.0346571
0.0478607
0.0543155
0.0346549
0.0346249
28.8869
94.8311
0.0546587
274.211
0.161644
309.913
0.0484625
86.5294
0.0347928
55.4934
0.0483763
0.161839
0.0347979
0.034662
424.704
0.034662
0.0346621
0.0346938
0.034662
0.034662
0.0458545
0.159336
0.0671332
0.034662
198.072
245.445
0.0457059
0.0346342
0.0346308
0.034655
0.0346685
0.0599672
0.0346802
0.110831
0.111983
0.0346393
0.0346616
154.283
152.177
0.0886756
0.133463
0.0347717
0.0524058
0.1436
0.034662
0.034662
0.0346457
227.848
0.0346415
0.0346516
0.0346553
0.0346222
0.0474037
0.0346943
0.0349033
171.215
0.0403813
0.0583443
0.0345662
0.152345
0.140485
143.793
0.0119648
0.034616
341.221
0.0346224
0.0346606
0.0346931
0.124993
0.0346332
0.0482954
0.138714
0.034662
0.034644
0.170651
0.0346581
0.0346391
250.411
0.135812
0.0351187
0.133896
0.0346579
0.03466
0.0346578
0.034662
0.0346217
314.986
0.0346553
0.0924558
0.0477689
0.034662
0.034662
639.015
0.0347285
0.162902
0.0481152
0.034662
0.0346435
0.0346623
0.0346362
0.0452544
0.155505
0.0346382
0.0478687
0.149558
0.0346223
0.034662
0.0463421
0.0346767
0.0346622
0.0466904
0.0459049
0.0346594
0.0346623
16.2542
0.166532
0.0474884
0.168752
0.138706
0.0360632
0.133216
0.0346443
0.0346425
0.034664
0.034636
0.034662
0.0350931
0.494816
0.0346624
0.0468409
41.012
0.0482622
0.0347015
0.0346356
20.3699
20.4224
0.0475056
41.8406
0.0346425
98.7809
0.0346198
0.0346167
0.0346618
0.0346808
0.177023
0.0346622
0.138595
0.0347045
0.034662
0.034662
0.034646
0.0474825
0.0452365
0.162494
0.107184
0.034662
0.034662
94.1092
65.7438
0.034662
0.0346411
22.675
0.100187
0.0274786
0.131935
0.032014
0.0346625
0.034662
0.034662
0.0346196
0.0456392
0.126312
0.120025
0.0346621
0.0346318
0.0469184
0.0348233
0.166511
0.0346593
0.0346253
0.0346496
0.0479725
0.0461115
0.0486402
0.0346534
0.0454844
0.141106
0.0346642
0.0346501
0.0340872
0.142722
0.0347669
0.0346548
0.0346554
0.0346485
0.034662
0.146544
0.050107
0.0346623
0.034662
0.119469
0.0346422
0.0346615
0.194087
0.192236
0.0485485
0.0346516
0.034662
0.0482859
0.034662
0.0346618
0.0346025
0.0346904
0.0346619
0.034662
0.034662
0.0346619
8.2524
0.034662
0.0346617
0.036494
28.8454
0.442449
174.927
197.332
0.0346635
0.192807
25.8667
4.29062
0.0466362
72.8861
0.0346779
0.147129
7.22612
0.14193
20.1722
0.0494987
53.8899
0.404363
0.509656
21.1463
0.0346383
0.034662
0.181431
0.0346643
28.7006
17.7379
609.27
1.01809
18.6376
19.0721
190.436
20.7638
282.65
0.0346475
0.0346508
0.0346393
1708.13
7.13879
0.0346245
0.0480955
0.0346775
0.0346624
0.0346619
0.148021
0.0348405
0.0476038
0.0346609
0.0346394
0.0350362
0.0346376
0.967439
0.0471325
0.0346189
0.780385
494.393
0.151232
0.0346402
0.157544
323.071
0.0925489
0.0467917
0.0346222
0.0346411
0.0481504
0.110657
0.0502815
0.0346915
0.0492478
429.698
0.0348035
0.0346408
0.122034
0.0346357
712.541
0.0455556
0.034662
0.1402
0.0380593
0.0347495
0.0511826
0.0480961
0.15475
358.424
21.6868
0.0347237
0.147826
0.055977
0.0346814
0.0346461
0.0544114
0.198814
0.0346116
0.0346463
0.0346666
0.180329
0.0511433
0.14112
8.41546
4741.3
205.772
0.117368
0.164231
0.0346604
0.0346585
0.0346537
17.2734
0.03468
0.0497693
0.47938
0.0400749
198.36
54.4189
454.681
0.0346577
177.384
164.321
0.0346562
0.0347206
0.0531004
0.03505
0.034656
0.03465
170.125
0.0346229
0.0348104
0.0346335
0.0348718
121.629
0.211855
0.0346592
0.034633
0.153823
0.034662
0.034647
0.250039
0.158175
0.0493945
0.452607
0.0346538
0.04832
38.9845
0.0347359
0.0346399
0.157211
0.048218
0.115089
0.0347185
146.812
0.15811
0.148272
0.034658
7.87694
0.0352459
0.0347681
526.906
0.0461404
0.0346466
0.0346428
0.0351873
0.034627
0.0331207
0.0346591
0.0869803
0.0346491
0.0346549
0.0351382
0.0375261
0.0346279
0.0346562
0.034632
0.0346716
125.998
0.035015
1.92224
0.169471
0.0346596
0.140835
0.569576
0.284001
0.346967
0.256785
77.2012
4.64662
72.5461
0.0356577
0.142763
0.0346223
0.122798
0.0346468
0.0346146
11.6291
0.0346354
79.0376
211.318
0.0366449
0.034675
0.0346426
0.0346451
16.9833
0.140979
0.0346403
5.49712
0.0357241
0.0346182
6.14195
0.0346499
289.939
142.95
0.0346624
0.0346183
0.0346792
0.0338044
0.0346286
38.112
0.0945703
29.8157
0.0346087
597.406
0.034639
0.300079
268.4
142.887
518.87
0.245812
0.0344817
0.03463
85.9827
109.636
0.034655
0.0352279
311.434
0.0346381
0.0346308
0.034662
58.3547
0.150815
0.0346499
0.034655
0.0346337
18.9574
0.462311
0.0346434
0.0346315
0.0346617
0.0540977
0.0346497
0.0348054
0.0347704
0.363946
368.328
0.559508
0.0346688
0.437848
19.0441
0.0346472
0.0346593
0.0410906
0.0498975
0.0349318
0.0346373
69.599
5.40358
6.86776
0.0346616
190.341
0.0472279
0.0346587
260.646
6.52461
0.654382
2.43487
0.148959
0.0346598
0.0346613
0.0337231
0.0346422
0.0368514
0.0347753
82.0346
0.034657
0.280482
290.156
0.0346501
0.0357614
0.0347296
0.0346569
0.0870204
0.0346003
3.54277
0.0346588
0.0346591
0.00377863
3.34276
107.125
0.440151
0.0346398
0.51324
0.0346432
0.0345809
0.774095
0.417717
0.0346666
17.4765
16.5634
0.034658
11.1824
6.14332
2.7627
1.65137
106.944
0.330599
0.0891757
1.02349
0.0349001
3.0154
0.034662
0.0346668
111.544
0.569011
43.5958
89.9087
52.8584
41.002
0.0346604
0.034743
265.704
2.13246
23.0713
3.42725
5.89529
8.98413
39.0088
63.5411
146.734
0.108153
69.0283
325.031
0.0451223
358.759
176.507
0.0252779
0.0485196
0.136935
0.0351732
54.915
0.0508632
42.2163
374.321
0.0346247
155.64
0.0346577
0.0399437
0.352934
0.0421688
9.5516
4.26364
0.0881463
0.130271
0.0346172
0.0346223
0.145107
68.2922
0.0346538
0.324942
0.034371
0.0346504
0.0365999
0.0461395
0.0346475
0.034662
0.0346618
0.034662
0.111936
0.600284
0.0346842
0.0346019
0.0346416
352.789
0.034662
0.0337855
0.0349337
0.034662
19.4889
0.780204
0.0346268
0.0346325
586.16
25.9299
0.0380397
10.1397
0.0345985
0.0346367
0.140315
284.681
0.0354791
0.034644
0.0276487
0.0349086
75.4142
0.0346455
0.0346507
82.8408
159.472
0.212943
0.0288337
0.0348492
0.035037
0.0310076
0.0480137
0.0584248
0.259491
0.035594
0.0348244
0.0347928
0.0346476
12.8826
0.0604201
1.16883
0.368364
450.286
0.0583431