/*--------------------------------*- C++ -*----------------------------------*\
| =========                 |                                                 |
| \\      /  F ield         | OpenFOAM: The Open Source CFD Toolbox           |
|  \\    /   O peration     | Version:  2312                                  |
|   \\  /    A nd           | Website:  www.openfoam.com                      |
|    \\/     M anipulation  |                                                 |
\*---------------------------------------------------------------------------*/
FoamFile
{
    version     2.0;
    format      ascii;
    arch        "LSB;label=32;scalar=64";
    class       volScalarField;
    location    "0.45";
    object      k;
}
// * * * * * * * * * * * * * * * * * * * * * * * * * * * * * * * * * * * * * //

dimensions      [0 2 -2 0 0 0 0];

internalField   nonuniform List<scalar> 
32842
(
0.0147106
0.0147106
0.01471
0.0147095
0.0259759
0.0147072
614.612
401.287
0.0147097
0.0147026
81.3144
84.7249
0.0147009
0.0147097
0.0146877
0.0146944
0.0146989
0.0147055
0.0147101
0.0256248
0.0272383
0.0362782
0.0250941
0.0147101
0.0261095
0.0147095
0.0147078
0.0216139
4.08725
0.0147083
73.5377
0.900634
188.208
0.0147133
346.065
826.399
0.0293994
0.014799
0.0147217
0.0147105
0.0147093
0.0271181
0.0147097
0.0147097
0.835779
0.0147118
79.4878
0.0146897
0.026708
0.750013
186.595
0.0147097
0.916704
4.5369
0.0147099
0.120226
0.0147093
17.7222
0.0147098
0.0147097
297.164
0.908916
0.915649
0.027307
0.0146991
129.136
0.0147098
0.944381
0.906751
0.0147554
0.0213152
20.9704
0.908099
0.0147097
0.0147097
0.0146966
0.703334
0.0147097
0.909561
48.1634
0.0258251
0.0147096
0.0147097
0.918972
0.941381
0.0147097
0.0147097
0.132453
0.563155
0.0146973
0.0278651
0.0265796
82.0669
0.0147042
0.0147091
0.014705
0.911047
0.0146947
0.924327
0.0147097
0.0147097
0.0355945
0.0147852
26.7582
0.911359
0.903223
17.0436
0.0128705
0.889291
0.0147172
0.014701
0.0146993
86.2959
0.0146996
0.014783
0.026878
0.919125
30.626
0.0147521
0.0147025
0.0147014
0.0147
0.402088
0.0147096
0.0140767
0.912869
0.882019
0.014715
88.5573
0.0147097
0.0147096
0.0146189
0.0386091
0.877655
0.0385809
0.0147042
0.00171608
3.7164
0.0147037
0.014711
0.912598
0.0147069
0.915923
3.9463
0.014707
0.0147039
334.701
0.0147029
0.0147097
0.0147019
0.0153317
0.793739
0.0256404
74.6054
0.0146988
0.0147097
0.0147096
0.0147028
0.0147077
0.0147007
0.0147068
0.0147097
0.0249518
0.0147097
0.0146975
0.0147077
0.0147097
0.014697
0.0147656
51.8346
6.29885
0.034638
30.0736
0.0147097
0.0275785
23.1321
0.0147048
0.0147797
0.0147097
0.0146969
0.0208621
0.0146997
0.0146991
0.0147085
0.919752
0.0146971
0.904603
0.0146994
0.0147084
0.0147025
0.0147043
0.43728
0.904093
0.0147097
0.906288
0.014708
0.0147116
0.0147106
0.907652
0.0146988
0.0147038
0.0148316
0.652628
76.0298
42.9728
0.0614129
0.0147017
0.0272468
0.896404
0.0147082
0.0147063
0.014963
34.7037
32.2921
0.0147035
0.0147097
0.0147079
0.0147382
0.014708
0.0146906
0.316677
0.0147091
0.0147013
0.0147067
0.0335185
0.89129
0.0147099
0.9119
0.0147107
86.3294
0.0146989
0.0147029
0.0146907
0.0147091
51.8854
0.026305
0.0266844
0.79082
0.0147119
0.915723
0.810653
0.0147307
0.0147077
101.404
0.0146992
0.0146808
0.912599
0.0147071
0.0147081
0.0147525
0.0147097
0.0147076
0.0146956
0.917723
0.0147282
0.0147068
0.0146978
28.682
0.0147032
0.0147022
0.0147053
0.0147097
0.0147097
0.0147075
0.90005
0.0147075
0.0147017
0.0147026
0.0147876
0.01471
0.014701
0.922114
0.0147045
0.891382
0.0147069
13.7303
0.0147078
0.0336783
0.0147092
0.0147059
0.0147025
90.7242
120.133
0.0147097
0.0147097
0.0802133
66.3927
0.0147097
0.0273595
0.0147097
529.91
0.0147099
0.904447
68.5646
0.932734
0.0143924
0.902685
0.0147018
0.0147101
0.0247805
141.093
0.014725
0.0147017
0.0147391
0.0147096
0.0147097
0.0147097
0.0147097
0.0147054
0.906926
0.0147366
0.0147097
0.918584
0.0146997
0.0147097
0.0147037
0.0147107
46.4981
0.0146982
0.0147136
0.0147084
0.504183
0.0147058
0.0185947
0.01471
0.0147054
0.0147063
0.0147099
0.0147037
0.0147097
0.0146962
0.925421
0.0147097
0.0147097
0.0147046
0.0147094
0.933852
0.909479
0.0147097
0.0147011
0.014707
0.0147093
0.0703509
0.0147097
0.910544
0.0147097
0.0147095
0.898074
0.914194
0.910574
0.0148948
64.2649
0.0147075
0.909116
0.0147034
0.0146752
0.0349883
0.0147093
0.0147008
0.0147149
0.0147097
0.0147097
0.0147103
1.78006
0.0147057
0.0147032
0.0147097
0.0147097
0.667386
0.0243468
0.0147097
1254.78
0.0146971
0.035799
0.0147097
0.894021
0.032308
0.0147097
0.00232126
0.0251261
0.0147059
0.908483
0.919019
0.0147101
0.0147091
0.01471
0.0147097
0.0147082
0.0147085
0.0147024
0.014703
0.014707
0.0147034
0.014709
0.0147066
0.0147097
0.0147087
0.0147078
0.0147076
0.0146941
16.5226
0.0147097
0.014705
0.0147318
48.2271
0.0147109
0.014714
0.0364594
0.0147091
0.0293732
0.86813
0.0146977
0.0147097
0.0147092
0.0146987
0.0147113
0.0147047
0.014703
0.0146975
294.682
0.014705
0.904583
0.0147096
0.0310757
69.5868
0.0147095
0.0146984
0.0147097
0.0137323
0.0147099
0.0147215
0.0147097
0.0147093
0.914664
0.0257754
0.912148
0.0147101
286.366
57.9276
0.917432
0.0290539
5.92186
0.0297525
0.919402
0.0147406
0.0147023
0.0198139
0.0147099
0.0240512
7.48573
0.0147101
0.0147064
0.0147526
99.1243
0.0234164
0.0147136
0.0147087
0.0263626
0.0146951
0.0148168
0.0147018
0.0279878
0.0147097
0.0147098
0.0147097
0.0146959
0.0147005
0.917311
0.0147044
0.0147623
0.0147097
0.0281578
0.0261281
0.0147097
0.0147046
0.918501
0.913852
0.0147097
0.0147099
0.0147097
0.0147097
0.0258505
0.0146976
1.63768
0.918136
0.0146962
0.01471
0.921054
0.0149168
0.0147097
0.0306347
0.0147871
0.0201021
0.0152423
0.899301
0.0274505
0.89846
0.913684
0.0292391
0.0147073
0.0330677
46.3854
0.0147017
0.913812
0.0317534
0.924062
0.0234234
0.0147017
41.5491
0.0303689
0.0147036
0.911525
0.0147073
0.885627
0.0147039
0.0147099
0.0329891
0.036421
56.8733
543.782
13.6143
30.5544
35.7969
25.0022
85.4279
0.924195
0.014707
0.0147021
0.0146971
0.921748
8.59134
0.929098
2.60026
0.0147063
0.0146965
0.023661
3.40758
0.01471
230.038
32.0935
0.0148906
50.6737
0.0105059
19.2832
0.0147648
0.0147097
0.0147062
0.915484
44.9401
0.0147097
0.028378
0.0147547
0.199693
0.905608
0.0147018
0.0147088
0.014699
0.0147087
0.639847
0.593666
0.0147097
0.0147097
0.0147125
0.892185
0.0197476
0.926813
0.0147099
0.0146982
0.0147097
73.1342
0.920893
0.9127
47.3842
0.904156
0.0147093
32.2987
0.907241
0.0147056
117.65
0.0147097
0.0259073
0.0147097
0.0566506
0.0266434
0.0251481
0.0147097
0.0147046
0.0147009
0.0147058
0.923462
0.0288895
0.0147099
0.014703
68.7026
0.0147092
0.0493782
55.6978
0.934682
0.0146983
0.0147019
48.6493
50.185
341.73
0.0147096
49.4416
0.924885
0.689041
0.0148654
0.902148
0.0147099
0.0147007
0.01471
0.0147097
0.0147097
0.837934
0.0264473
0.0147009
0.0147097
0.0147045
0.0147097
0.0146762
0.014704
0.0147058
0.171783
0.922196
0.014705
0.0147097
0.79822
0.698153
6.54987
0.0147063
0.52196
0.0147018
0.0147097
0.0147823
58.9398
0.917117
0.0147095
0.0294084
0.0147096
9.36688
0.0147097
0.0147097
0.0147099
0.0147205
0.458398
0.0147097
0.0147097
47.935
4.78767
0.0145588
0.0147287
0.014699
0.915009
0.935624
0.0147097
0.906618
0.0297417
0.0147097
0.0147089
106.208
129.356
0.0147097
0.921018
101.407
0.0147071
0.618791
0.0147031
0.0147097
0.0313706
0.0311428
0.0154346
0.0147055
91.1043
0.0147094
48.4433
0.0147046
0.0147095
61.253
109.25
6.09327
1.84783
0.0147097
0.0147234
0.0243031
0.0252804
83.9303
27.2579
122.085
127.257
0.0146877
0.0148299
133.792
0.0147034
6.24442
0.0147034
0.0147802
0.936574
25.9208
0.0147026
0.014707
0.0147046
0.0147005
0.0147123
0.0147097
0.0147028
0.0147097
0.0147097
0.919872
0.0147097
0.0147619
0.0147097
0.927925
0.0146986
0.014711
0.0147071
0.874187
0.0147089
0.0146993
0.0146782
0.0146915
0.0147073
0.0147099
0.0155178
0.0147153
0.0147062
0.0147174
0.0147014
0.00545447
0.0146967
0.0307355
0.019376
0.0281039
0.0147096
0.0320317
0.0385688
0.89218
0.0146981
0.0147073
0.0295601
0.961019
0.0147097
0.878503
0.0320271
0.0147097
0.0147097
0.0224464
0.0147244
0.0147379
0.901203
0.0147097
0.0147025
0.0147099
0.0297685
0.886677
0.0146996
0.0312681
0.0147087
0.0242757
52.276
76.103
0.0277803
0.0147117
0.919516
0.0146999
0.0147097
0.0146993
0.0147037
0.0147943
0.014656
0.366136
0.0147097
0.0148463
0.91561
0.0321741
0.0147119
0.0147352
0.0147097
0.905779
0.0384128
0.916198
0.0147044
0.913166
0.89677
0.027477
0.0147099
0.0242393
0.0147033
0.0294469
0.0147079
0.0147017
0.0273951
38.4525
0.88986
0.0147061
148.209
0.0147024
0.886049
0.0147014
0.0147041
0.0147038
0.0147097
0.0146834
0.0147935
0.0147068
0.0147014
0.0147091
0.014707
0.0147037
0.014705
0.9218
0.0148529
0.366495
0.0147055
0.0147074
0.0288861
12.1186
0.0147059
0.0147084
0.0269575
0.0147001
0.0147588
0.0147439
0.0359975
0.940645
0.0147097
0.014707
0.0147645
0.0147034
0.0147078
0.0147093
0.0147029
0.0147097
1048.21
0.0147013
42.3754
0.014706
0.0147045
0.0146954
0.0146962
0.0270871
0.0147084
0.0147097
0.0147097
0.0147025
0.8177
0.0147097
0.0147448
0.916463
0.0146987
0.908394
0.0147013
162.44
0.0147054
0.0147075
0.928925
69.9268
0.0146385
0.014707
64.8232
0.0312317
0.014703
0.014712
0.0147097
0.0147122
0.0147106
0.900893
7.03263
0.895324
0.0147097
0.907825
0.0146971
0.0146884
0.0147176
0.0238668
0.019432
0.0147018
0.014707
0.0147072
0.0147079
0.0147244
0.0147097
0.0147139
0.0146888
0.014677
0.127299
0.0305165
0.0147097
0.498949
1.01739
0.014669
0.0236349
0.12246
0.0147097
0.0147001
0.0147094
0.878002
0.0147097
0.0147097
0.895805
0.03115
0.0147008
0.0147097
0.0147097
0.0147106
0.017328
0.717284
0.0147028
0.0146833
0.910584
0.0147533
0.0147269
18.1162
0.0147098
0.0147085
0.01471
0.0146984
0.907191
0.0147489
0.014669
0.0147064
0.0147175
0.0311962
0.0147097
0.910499
0.0260109
122.819
0.0147097
0.0147097
0.0147025
0.0147049
0.0147069
0.0147097
0.137325
49.3552
0.0232129
0.116974
0.0147097
0.0244585
0.0147096
0.0147097
0.0147526
0.0147097
0.0147166
0.014708
0.0147097
0.014697
0.0147022
0.0147054
23.044
0.014704
0.932185
0.0147033
0.920616
0.923721
0.0147097
0.0249237
0.911432
89.9471
107.928
0.231223
0.0147055
0.01471
0.0147097
0.01471
0.621233
0.01471
0.656642
0.594281
0.308402
0.550137
0.0196042
57.1973
0.0147097
10.6691
706.754
0.0147039
58.0048
0.00131238
0.0146973
0.0147097
0.0147044
18.2578
0.0147078
0.905428
0.0267828
228.91
0.885187
0.912683
0.0356363
0.0147097
0.0147033
0.0147075
0.0147046
0.0148189
0.0147055
0.0147016
0.0147094
3.3048
0.0319247
0.0147057
36.3548
0.0146948
0.0146981
0.0147109
0.0147086
77.5217
1.83206
0.0146995
0.0147081
0.0146929
0.903639
0.390052
0.0147009
5.79378
0.887415
6.25025
0.0146957
0.0146998
51.9371
0.918973
0.0147101
0.0147336
0.0147375
0.0147079
42.0431
0.0146922
0.875948
0.014734
0.0147097
0.0147025
0.014698
0.0161821
9.32933
0.0147104
0.014704
576.661
0.484308
0.90779
0.0147133
27.6549
49.426
0.014698
0.0147099
0.0147078
0.924691
45.928
0.0146962
0.0267491
7.67433
0.0147094
0.0182969
7.46671
0.0146953
0.0147015
0.0147862
0.014705
136.163
0.0147025
0.0147078
0.525718
32.6406
0.0207374
0.0215948
15.699
0.0147111
93.7696
0.8792
0.0147042
0.917547
0.916304
24.9776
6.23562
19.8336
17.0669
0.0147037
294.755
0.909571
0.015907
0.0147071
0.0147143
0.0146977
0.0147094
0.0147055
0.0146962
0.0147118
49.6969
0.0147081
0.0147011
0.126737
0.0147095
0.0146998
93.9317
0.588183
0.0290439
0.0170809
0.014704
3.87562
137.433
0.897191
0.0147086
0.0147089
0.0146957
1.56448
62.4036
0.0348891
0.0146374
29.1445
0.0147047
10.4189
0.0152977
0.0147064
1.00485
0.0308673
0.0147027
0.318789
0.0147007
0.0147078
1.55083
72.0584
42.4556
0.0147106
0.0147038
0.0147097
0.0147046
0.0148378
0.0204615
14.6584
0.0147097
0.0147094
43.7637
0.0147053
0.0146982
1.59217
0.0147086
25.3829
32.047
0.0147092
0.014709
32.7496
13.1515
28.006
15.624
0.0146937
111.435
16.7279
0.0393529
73.338
0.0610356
0.91479
0.0147097
0.0147072
0.0137619
3.48265
0.0369995
0.0147119
1.33875
0.917332
23.9788
0.879844
0.0147097
0.515495
3.44092
3.44086
0.0147097
0.0147031
28.4395
0.0147069
0.0147881
0.406848
0.0148804
114.886
11.9044
0.0446582
0.0197995
0.0147042
0.0147062
19.7785
0.988683
0.014656
0.0147505
0.0147097
0.830913
0.0147694
0.0267624
308.834
0.0147535
1.5398
41.679
0.595792
24.8278
39.909
136.112
0.0148146
0.918868
32.7784
4.14069
0.0230652
0.0147087
27.9312
0.0147025
0.0142818
0.0368719
0.751932
0.9055
5.28216
0.0322492
0.896861
456.492
0.0146978
40.3388
0.0345682
0.900022
32.7748
0.0147079
0.904083
0.769743
37.632
0.0376347
0.0147098
0.921964
0.0147097
0.0273286
217.401
0.025226
0.0147158
0.908671
1.2303
0.014705
95.4936
0.0147097
0.0147038
0.0147032
0.0147036
17.3364
0.02451
0.0147097
0.841112
0.926854
0.0147073
0.0147291
30.5842
0.0147158
0.0147097
0.0147071
29.0525
16.6568
0.0147058
79.6825
0.0147097
44.9976
0.551346
0.0150024
0.905948
12.9068
0.288465
0.0555085
0.0147186
1.62374
45.729
21.1555
71.6911
153.459
0.0273941
21.0505
0.0147051
93.9561
0.0146996
0.90426
0.0147065
12.21
0.0146987
0.026881
0.0190797
49.4492
7.79683
0.0265327
0.0147022
78.8869
0.901292
0.0147159
0.0147097
39.8208
0.618762
0.0146631
0.927469
0.0146962
8.90365
6.90048
0.929856
0.0146856
0.0147093
12.1759
72.4179
0.0293725
0.0147102
0.0312079
0.0147129
0.0147044
8.54741
0.0147097
0.887819
0.914988
0.014707
7.1263
0.014699
76.8364
41.4907
0.0147097
0.0408384
14.3239
0.0147098
0.0147097
0.0146982
0.927282
0.014698
0.0147823
0.0147297
0.0333351
0.0147807
0.0149122
0.0147149
0.0147027
0.0147085
0.0147001
0.0146983
0.0147173
0.0147003
0.0147074
0.0147121
22.1547
0.0147515
0.0147044
77.8584
0.00480243
0.0146958
0.0147068
0.0147117
0.0147097
0.0317529
12.4533
0.0147079
0.0147107
0.0147962
0.0163292
1.03492
19.354
0.0397854
0.886963
54.826
0.0147074
0.0147055
101.054
63.3526
0.0290979
0.902463
0.0147073
0.0147031
47.4315
0.0308086
58.5307
0.0302489
0.0344141
0.0230225
0.0147064
57.4311
0.0146985
0.0147101
0.0340744
56.7979
117.11
0.885921
49.0142
0.0252294
0.024349
0.0735141
0.0146556
49.4507
26.1325
0.0248161
33.8051
0.0147096
95.3575
0.0147166
0.0127882
0.0147704
9.07597
0.0147096
50.6728
0.0147531
0.0147041
0.0326152
12.2164
2.90398
0.016007
0.0146984
0.0147009
27.7501
0.0147015
0.0147097
39.0895
0.0147097
17.8436
0.014672
0.0147185
0.0149179
0.014703
0.0147037
0.0147097
18.2911
0.0147124
3.49123
0.832151
0.0147141
0.0147068
0.0147057
0.0147035
0.0147272
0.014706
45.6152
0.0147147
0.0147044
0.0147097
0.0324774
0.893151
0.014704
0.0147684
0.0146988
56.2396
0.0146308
0.0147028
0.0146975
0.0147018
0.0147
0.912828
0.0147059
0.0147073
0.0147013
59.1804
0.0147514
0.0147137
0.0147058
0.912246
0.0147766
0.0148372
0.593561
0.0146992
0.0148412
0.0146893
10.5694
0.014696
0.0147028
0.0135559
4.89325
28.7031
0.0147024
75.5138
72.0869
62.1241
0.0147005
80.5218
0.416263
0.0268561
0.0147012
77.6098
53.6901
0.0147095
0.0147087
0.0147024
0.0147009
59.1384
40.2595
0.0147021
0.0147096
0.0142399
0.0147044
0.0147749
56.0415
0.0147102
65.1615
87.2558
0.0147098
0.0153332
0.676446
0.0153727
0.0112424
0.014712
0.0147005
0.903493
0.0147077
63.4182
0.0147068
0.01501
0.0147066
0.904333
0.0325526
0.014702
0.0146523
0.0147058
0.0146973
0.00839573
0.0147443
37.8712
0.0146967
0.276474
0.411606
0.0395334
0.01471
0.235418
0.938817
0.0147089
11.541
1.38535
0.0386512
0.0147114
0.0147007
0.915047
14.6501
0.891882
0.409643
0.01471
0.0147097
0.0448019
0.0147067
7.05877
0.0146982
0.0147201
0.0331842
0.16291
0.0147055
0.0147097
31.6318
0.0147097
0.0147058
0.0147096
0.0147097
8.60806
0.87737
28.5923
0.0147097
0.0147133
0.0146955
92.7696
0.0147965
47.02
67.8256
0.0326174
0.0147036
0.0147012
0.0147066
0.0147097
67.5831
65.7298
0.0147097
0.0147032
0.0147055
0.0146985
0.908806
0.0147097
0.918248
0.0147097
0.923122
0.0297461
9.7373
0.0147098
0.0146984
0.0147097
0.0148277
0.0147695
0.0148366
0.0147097
0.900932
0.0148307
3.84472
6.62629
3.80977
0.0147045
0.0147033
0.01471
0.0147085
0.0149577
65.6722
0.0147091
0.0147054
0.0147076
0.930218
4.57154
52.3522
107.446
63.0316
0.902232
0.0403308
616.7
0.0145224
0.906873
0.0146319
0.0146908
0.0362471
0.742772
40.8994
0.0636228
0.0146986
0.90472
47.0325
0.0147038
0.0147048
0.0148067
0.0147623
0.0147031
0.0147102
0.0279964
34.1122
0.0147114
30.3749
59.9976
0.0147016
0.0147097
0.0147097
0.0147006
0.0147014
0.0146986
0.0147424
0.0330874
11.6155
0.0147843
2.52472
20.0597
0.0148109
5.11544
0.921366
0.0147036
0.0265341
2.35509
0.0162842
0.0281769
0.0279643
16.0152
0.909547
0.014723
70.2983
0.014707
0.0147071
0.439382
0.0147008
0.0147019
0.0147107
0.0147098
26.2635
0.014728
0.0147039
0.0147025
0.0147097
0.0146985
0.0147037
0.0147049
0.0147377
0.9197
0.0147048
1.34323
0.014698
0.0154605
0.0148199
0.0147006
48.126
0.0147205
0.0147075
0.8814
0.00761292
0.0147057
0.0146749
0.0494549
0.111453
15.1337
0.0150533
0.0147097
90.6188
0.0147014
0.0147034
0.014702
0.60493
0.0147052
0.0147149
0.0147059
13.524
0.025838
0.0147023
0.026814
0.0147069
0.915218
0.0328969
0.014696
0.73719
0.0147099
0.0147026
0.0146956
0.0147006
0.0146996
0.0147046
0.0277994
0.0147025
0.0146992
0.0152656
0.905475
25.0405
0.0147262
0.0148601
0.0355479
0.0150281
1.87871
0.899588
0.472028
0.0153044
0.0147653
0.0274836
0.0147024
0.0145223
0.0147282
16.7013
0.875114
0.0297952
0.911747
0.91115
0.0147107
0.0147099
0.916157
0.0147011
0.0147077
0.386642
0.0297725
0.0147087
0.0147047
0.0103501
0.0147043
0.014706
0.0147113
0.0147097
0.0147038
0.938154
0.0147038
0.0146988
0.0147084
0.0147105
0.0147097
0.256137
0.322285
0.0340702
0.0147019
0.0255517
0.0513368
0.0147087
0.0147011
0.0147073
31.2782
0.912552
9.28167
0.0147052
67.1637
0.0147035
0.0147012
0.930302
0.904862
0.0146988
0.0147174
0.0147097
0.0147066
0.0146986
0.0147043
0.0147023
0.0147043
2.23424
1.87118
0.914393
0.0147105
0.01471
87.6902
0.0147099
41.1195
0.0146999
0.0252823
0.0147142
0.0147096
0.0146988
83.8737
0.691391
0.0145561
0.014507
0.0147037
0.0147097
0.00673692
0.014703
0.92618
0.0279137
36.1612
0.89674
0.0147097
48.3625
0.0147097
0.0147085
0.0147097
0.0147097
0.0147126
0.0146995
0.910277
0.0147021
0.0496401
0.0147097
0.0147349
0.0147027
315.779
0.014716
0.0146972
75.7008
0.911999
0.0147039
0.0147034
0.0147014
0.014706
0.529713
0.0147018
0.908321
0.0147014
0.0147067
0.182127
28.9643
0.0146973
0.0145071
0.0147042
0.0153643
0.0147097
0.0147097
107.53
0.0147057
0.0147097
0.0282733
0.0147097
0.0147171
0.0147092
0.0147099
0.014722
0.051512
0.0146961
0.0148479
4.60322
34.3157
271.638
0.0147094
0.0146998
39.3901
0.0146995
0.0149374
81.4788
0.0147118
36.5626
37.076
72.2547
0.902751
0.0147058
0.0147025
0.0147032
0.0147097
0.0147014
0.89358
0.0147041
0.902683
0.0147031
34.0906
0.129848
0.014705
75.061
0.0147026
0.0147046
0.0173405
41.0719
0.917073
0.0147097
6.09254
0.0146974
0.0147097
0.0147029
0.0147139
0.0147061
0.0147097
84.9719
0.893591
0.0150821
0.0147112
0.0148922
0.0147088
93.6162
0.0147097
30.201
0.0146989
0.0147097
0.0145975
0.0299296
0.0147092
50.5906
100.76
0.0147006
0.0147059
0.0147034
18.0232
0.0147075
0.0147009
0.0147029
17.6041
0.0147405
0.0147097
0.0147225
0.772992
48.0956
21.6823
89.5039
5.94193
84.0275
0.0147082
0.0147004
0.0147221
27.4091
0.0147116
0.0147091
22.1996
0.0219468
0.895918
0.0147099
0.014708
0.918262
0.921088
95.8841
0.0147088
0.0147057
32.0421
16.449
0.100999
38.0314
0.808117
0.0147003
0.0147041
48.5584
0.014707
0.0147018
0.0295761
43.6054
0.0270349
53.717
0.907664
49.6153
0.0147036
1.05208
30.9406
0.0147039
0.0147066
59.825
0.014762
0.0147077
0.0147036
0.0147081
0.0149745
0.084256
0.0148016
501.424
0.0147123
0.0147097
0.0147097
0.0145957
0.0228171
0.51015
0.0147057
0.0146964
0.0146962
8.50133
72.4764
0.0147029
0.0147017
0.0138914
0.0147027
0.0125666
0.0146984
0.0146983
77.7501
0.0148495
76.3514
0.0147093
19.4933
0.0147083
8.30599
8.12798
25.7813
0.0146995
0.0151167
11.5509
0.0147044
0.0147035
0.0147081
0.0147089
0.00160699
0.0737689
12.502
47.1106
20.9198
119.831
0.0283436
103.061
0.0303741
0.0310277
0.0146967
0.0147075
0.0345929
0.0147083
0.0256881
0.0146957
0.0147333
0.0147147
0.0305373
0.0147109
0.0150498
0.0285861
0.014706
0.0147071
0.0146994
0.01471
0.0146926
0.0147086
0.892285
0.0147021
0.0147095
26.8131
0.0147122
66.8637
76.6559
0.90897
57.4574
0.906437
85.0849
0.910719
0.0147097
0.0147097
0.0147145
0.89896
0.0147097
52.8054
0.0147055
0.0147184
0.0146989
0.0147053
0.014705
0.0147132
0.0146999
0.0144385
0.0146997
0.910977
0.0147078
0.0147057
79.8238
0.0148217
0.0147095
57.1945
0.907471
0.0147013
0.0147057
0.0146975
0.93318
30.7458
34.2109
110.851
41.9703
0.0147035
0.0147074
0.0147008
0.0147009
0.0147105
0.0146976
0.02841
0.014702
0.0147063
0.0147022
0.0147698
0.0147094
0.0147074
0.0147072
0.0147308
10.5656
12.9976
33.0205
0.300929
0.859896
0.0147033
0.014708
46.1442
0.014033
0.0146982
42.3655
0.0305235
0.014706
0.0147077
0.0445906
10.4867
1.12584
0.014704
0.0147097
0.0298379
39.6313
0.0147097
0.0147136
0.0147097
0.286668
55.5292
0.0148395
0.0313337
0.0147026
0.0147099
0.0147028
0.0147107
0.0147056
0.0146982
0.0147085
0.0147055
0.0146985
0.0147016
0.0147002
0.0147037
0.014701
0.552275
0.0147011
0.357837
10.1607
47.8022
15.0189
0.909249
0.925672
3.12514
2.95214
0.0147097
0.0146971
0.0149641
0.296325
0.838242
0.900573
0.197981
40.6565
83.4133
8.80565
26.1167
0.0269059
0.0152041
0.0147948
50.5771
1.70021
21.7976
0.0147072
0.0147119
0.0147036
0.0146889
0.889193
1.42908
0.108212
26.3504
0.0147768
0.0147009
0.0147022
0.0147044
9.53899
0.0216103
0.0146995
0.0146993
0.924369
0.00743859
0.0147027
0.0147076
0.0147388
0.0147076
0.0147052
0.014712
0.896672
0.0146414
0.0147038
0.0146958
52.0102
0.0147535
0.0197885
0.0151954
0.0147093
9.4927
0.0147061
0.0147854
0.0147049
0.241651
16.4564
11.6623
0.0147049
2.8489
0.0147043
0.0147037
19.0508
0.917981
53.3235
56.6034
0.890941
0.0147097
16.4587
0.0147013
0.0147097
0.0147097
0.0147267
0.0147097
16.6348
0.0147059
0.326751
9.09627
0.0147098
0.0147064
0.033065
0.0148024
0.919639
0.014708
0.0673854
0.0147079
0.0147095
16.3485
0.0147126
0.0147052
101.643
0.0147059
0.0147056
0.0147103
107.056
20.0297
0.0147062
11.0273
0.0147072
0.0147107
0.0146995
0.01471
0.0147074
0.0147044
0.0147066
0.0147097
0.0147082
0.0147347
0.152826
0.0147111
0.00715687
0.0147074
0.0503777
0.0318229
0.439695
73.1418
0.0147097
0.0147097
0.0147011
26.0196
95.7607
0.0147097
0.0147321
146.759
50.6696
0.685568
98.4254
6.33356
0.0147055
0.887398
0.90756
0.0147851
0.0147009
0.0147031
0.0147895
0.919952
0.014338
75.4196
0.014708
0.0147061
46.6281
280.647
0.0147584
67.4524
124.119
0.0146987
0.0147172
0.0310069
0.0147048
103.289
0.0302718
0.0309196
0.0327423
0.0147112
0.014708
40.466
0.074212
0.0147897
0.0147041
0.0147066
0.014706
0.0146973
0.0146991
0.89925
42.7727
0.170844
0.0147065
0.014711
0.0147092
0.0147029
0.0147895
0.0147042
0.0148126
0.0149796
3.43548
0.0147036
0.857497
0.913288
0.014705
0.0147176
0.0147111
71.1735
0.0147014
0.0149475
2.81312
0.93251
0.0146223
0.0147087
0.0147129
0.0147115
0.0147713
64.3608
0.0148878
0.01471
13.4096
30.5603
0.0146948
43.03
0.0145937
0.0247731
0.0162921
0.0147085
0.932063
0.0147058
0.0147028
0.0147094
0.0147485
0.0147656
0.0147226
0.0367073
0.0147855
0.0216389
0.0147531
0.259425
0.0148413
0.0147091
0.0147859
0.0147534
0.034796
0.896018
51.0028
0.0148914
0.0111934
0.0280603
0.014705
0.0349752
0.901064
15.604
0.031413
0.552499
0.0147062
0.0380132
6.15036
0.0146996
51.5627
41.4752
3.98653
0.0309841
0.0314611
0.865566
0.0147127
0.0147476
0.0586097
85.7477
0.0147436
0.0147075
0.349372
0.0147776
0.0147089
0.032584
13.589
195.231
0.0147096
0.825106
0.0147034
0.825954
0.0146377
0.0147126
0.883084
0.0147107
0.0341783
22.546
0.15713
0.0325151
58.3435
0.0148189
0.525812
0.0147083
0.931423
8.54168
0.0267581
0.0147663
0.015718
57.716
44.1795
15.1351
0.0147762
0.0147836
44.1835
0.0147071
0.0147073
31.4668
20.5818
0.0311432
0.0147068
0.0147087
0.0147038
0.921244
0.0146984
0.0147003
0.0147008
0.336836
0.0147436
0.0147097
0.0995018
0.0358238
0.0147075
0.014703
55.8741
36.6885
0.0147089
0.0147124
0.849346
0.847167
0.0147026
0.793988
0.036123
0.0339165
7.27489
0.0147041
0.398303
0.0275347
0.0147108
0.0147379
8.06145
0.252008
122.451
0.0147122
131.401
4.35167
0.164005
0.870027
0.0808627
7.00752
9.27372
53.8214
0.876766
28.2905
0.894855
0.0147031
0.0148506
0.918726
0.014705
0.0147139
0.910933
1.34724
0.0147009
0.0147314
0.0147044
0.0147037
0.0299726
0.910069
0.0146983
10.1459
0.0147078
0.0147097
3.9006
0.912504
26.0542
0.0147972
0.944709
141.904
7.06232
59.7698
0.0147106
0.014707
0.0147043
0.0147075
0.0277433
0.0325207
0.0147066
0.0146978
31.8109
23.4922
0.0374675
138.09
0.909319
146.319
0.0284586
30.6777
0.0148146
38.4491
0.0284697
0.915389
0.0147909
0.0147097
125.751
0.0147097
0.0147098
0.0147054
0.0147097
0.0147097
0.0248616
0.897156
0.207979
0.0147097
138.288
128.75
0.024672
0.0147014
0.0147003
0.014707
0.014711
0.23424
0.0147143
0.882266
0.886409
0.0147017
0.0147096
95.8389
138.791
0.936915
0.92062
0.0147951
0.033572
0.920987
0.0147097
0.0147097
0.0146948
145.15
0.0147036
0.0147066
0.0147077
0.0146978
0.0264988
0.0147574
0.0147891
120.944
0.0197665
0.040542
0.0146516
0.905851
0.921103
62.5634
0.00350476
0.0146956
49.535
0.0146975
0.0147093
0.0147462
0.938299
0.014701
0.0273798
0.933069
0.0147097
0.0147044
0.910049
0.0147091
0.0147029
53.8624
0.929601
0.0148574
0.928447
0.0147081
0.0147091
0.0147084
0.0147097
0.0146976
54.4198
0.0147073
0.902568
0.0281621
0.0147097
0.0147097
44.8371
0.0147491
0.866545
0.0285239
0.0147097
0.0147042
0.01471
0.0147018
0.0243348
0.910769
0.0147026
0.0269706
0.903941
0.0146979
0.0147097
0.0253815
0.0147281
0.0147098
0.025658
0.0249971
0.0147089
0.0147099
20.4487
0.902752
0.0266441
0.918851
0.918895
0.0151745
0.928548
0.0147043
0.0147039
0.0147099
0.0147017
0.0147097
0.014885
2.07503
0.01471
0.0271605
33.0354
0.0292761
0.0147249
0.0147017
9.66955
4.14312
0.0273483
15.3408
0.0147039
10.0542
0.0146968
0.0146959
0.0147096
0.0147421
0.894221
0.0147099
0.91764
0.0147548
0.0147097
0.0147097
0.0147048
0.0266797
0.0242792
0.902518
0.92695
0.0147097
0.0147097
25.9127
30.0782
0.0147097
0.0147031
14.1746
0.930404
0.00890327
0.912559
0.0117786
0.0147101
0.0147097
0.0147097
0.0146971
0.0247188
0.919777
0.931058
0.0147098
0.0147006
0.0258718
0.0148396
0.911683
0.0147082
0.0146987
0.0147053
0.027008
0.0251793
0.0293863
0.0147072
0.0262343
0.911318
0.0147098
0.0147055
0.0143801
0.911591
0.0148041
0.0147076
0.014707
0.014705
0.0147097
0.921239
0.0292671
0.0147099
0.0147097
0.942935
0.0147031
0.0147096
0.893896
0.894372
0.0277686
0.0147066
0.0147097
0.0274984
0.0147097
0.0147097
0.0146922
0.0147441
0.0147097
0.0147097
0.0147097
0.0147097
15.0118
0.0147097
0.0147096
0.0395726
34.2017
1.93777
117.99
70.222
0.0147097
0.892511
28.0314
10.162
0.0255677
50.0401
0.0147336
0.885341
14.4543
0.426333
26.5239
0.030824
40.1205
0.577234
1.81668
24.8319
0.0147024
0.0147097
0.179138
0.0147097
47.0717
31.8403
39.9031
3.55435
22.0737
34.0631
150.137
9.45205
107.631
0.0147041
0.0147064
0.0147024
185.998
17.5189
0.0146976
0.0288115
0.0147136
0.01471
0.0147085
0.921279
0.0147665
0.0267176
0.0147084
0.0147019
0.0148286
0.0147018
2.6106
0.0265219
0.0146969
1.69013
65.4779
0.889448
0.0147025
0.899141
119.342
0.928647
0.0275886
0.0146972
0.0147025
0.029482
0.100722
0.0312634
0.0147177
0.0307714
128.996
0.0148233
0.0147025
0.906733
0.0147016
125.965
0.0246062
0.0147097
0.919629
0.0166721
0.0147732
0.0338956
0.0272059
0.914901
140.149
10.5602
0.0147595
0.90162
0.0378503
0.0147232
0.0147055
0.0356817
0.908053
0.0146947
0.0147045
0.0147104
0.872976
0.0319651
0.896149
6.30555
372.199
119.268
0.915767
0.921525
0.0147085
0.0147078
0.0147066
22.44
0.0147142
0.0300192
3.1003
0.0186172
111.943
48.1862
46.7529
0.0147084
117.659
109.212
0.0147075
0.0147546
0.0334042
0.0149198
0.0147071
0.0147055
59.2926
0.014698
0.0147408
0.0147005
0.0147779
47.2214
0.207669
0.0147079
0.0147001
0.908808
0.0147097
0.0147047
0.264812
0.914129
0.0312801
0.781926
0.0147063
0.0279949
42.7707
0.0147801
0.0147026
0.920891
0.0297598
0.0730414
0.0147454
76.9543
0.923564
0.908073
0.0147154
16.0088
0.014897
0.0147926
35.5172
0.0250985
0.0147044
0.0147039
0.014985
0.0146989
0.0125408
0.0147088
0.0701273
0.014705
0.0147068
0.0148576
0.0156097
0.0146988
0.0147088
0.0147008
0.0147115
105.804
0.0148239
2.03088
0.897292
0.014709
0.541917
1.08912
0.295704
0.372954
0.278563
48.3456
4.19605
60.5583
0.0157207
0.445111
0.0146979
0.124823
0.0147047
0.0146956
7.56847
0.0147009
67.7406
49.1136
0.0155923
0.0147123
0.0147031
0.0147039
7.71777
0.103286
0.0147028
6.15911
0.0150476
0.0146967
14.9357
0.0147051
93.0012
72.9362
0.014709
0.0146967
0.0147141
0.0131707
0.0146988
29.5189
0.0777873
36.996
0.0146938
60.816
0.0147025
0.558776
52.6029
32.7645
43.4682
0.341356
0.0146434
0.0147002
64.4725
84.5066
0.0147076
0.0148841
43.3254
0.0147013
0.0146995
0.0147097
67.7031
0.907463
0.0147057
0.0147072
0.014701
5.4528
0.489015
0.0147034
0.0147
0.0147087
0.0339224
0.0147055
0.0147546
0.0147456
0.424087
94.9492
0.693276
0.0147038
0.279
8.20686
0.0147048
0.0147078
0.0185159
0.0289097
0.014856
0.0147026
9.32821
6.35907
3.70258
0.0147102
54.6844
0.026255
0.0147087
78.6153
5.33081
0.769504
3.06174
0.908258
0.01471
0.0147095
0.0126917
0.0147029
0.0157633
0.0147462
75.1233
0.014709
0.43847
86.3
0.0147062
0.0150608
0.014781
0.0147082
0.0710491
0.0146909
36.3753
0.0147088
0.0147088
0.104232
8.90158
38.0144
0.827626
0.0147031
0.389075
0.0147043
0.0146553
0.526678
0.842956
0.0147104
34.4749
3.5911
0.0147081
14.0002
8.18262
2.8804
3.155
104.237
0.336626
0.0712099
4.12535
0.0147853
3.77348
0.0147097
0.0147107
67.5231
0.824629
22.8196
34.3337
35.2359
6.31124
0.0147092
0.0147356
72.8767
3.47725
39.9791
8.05925
10.5988
18.1665
28.2181
23.2085
57.3377
0.415546
22.4431
45.0885
0.0254196
92.4463
39.5268
0.0123488
0.0298665
0.916628
0.014871
36.1988
0.0334442
28.3493
135.546
0.0146981
138.114
0.0147084
0.018139
0.440197
0.0204693
2.8016
8.81713
0.313533
0.907496
0.0146957
0.0146975
0.914295
75.018
0.0147073
0.70181
0.0145364
0.0147058
0.0152672
0.0251177
0.0147046
0.0147097
0.0147097
0.0147163
0.927789
2.36248
0.0147067
0.0146883
0.0147024
37.6085
0.0147097
0.0138926
0.0148472
0.0147097
31.1429
2.56032
0.0146991
0.0147009
66.2325
40.8125
0.016803
16.0563
0.0146903
0.0147014
0.898287
88.8252
0.0149669
0.0147033
0.0213853
0.0147875
80.1339
0.0147082
0.0147059
90.5658
93.0561
0.546783
0.256215
0.0147704
0.0148268
0.0118888
0.028278