/*--------------------------------*- C++ -*----------------------------------*\
| =========                 |                                                 |
| \\      /  F ield         | OpenFOAM: The Open Source CFD Toolbox           |
|  \\    /   O peration     | Version:  2312                                  |
|   \\  /    A nd           | Website:  www.openfoam.com                      |
|    \\/     M anipulation  |                                                 |
\*---------------------------------------------------------------------------*/
FoamFile
{
    version     2.0;
    format      ascii;
    arch        "LSB;label=32;scalar=64";
    class       volScalarField;
    location    "0.45";
    object      p;
}
// * * * * * * * * * * * * * * * * * * * * * * * * * * * * * * * * * * * * * //

dimensions      [1 -1 -2 0 0 0 0];

internalField   nonuniform List<scalar> 
32842
(
101301
101069
101322
101322
101325
101288
92823.3
96004.5
101325
101217
95156.8
96831
101176
101325
101325
100988
101149
101263
101175
101325
101325
101267
101325
101325
101202
101322
101297
101325
97302.2
101275
99031.4
101325
97057
101347
97030
94931.4
101101
101393
101155
101307
101306
101325
101325
101325
101139
101327
98762.4
100982
101325
97192.2
96954.4
101325
101334
97560.5
101325
101040
101319
97833.2
101325
101325
96303.6
101084
101325
101325
101145
98095.3
101325
101317
101325
101021
101325
100570
101325
101325
101325
101262
97734.7
101325
101176
100920
101325
101324
101324
101325
101325
101325
101325
100950
98542.3
101139
101160
101316
100140
101325
101316
101209
101153
101325
101325
101325
101325
101101
101193
100645
101183
101165
98245.9
101211
101202
100931
101196
101167
99775
101175
101050
101325
101325
100635
100979
101171
101195
101180
96957.4
101321
100990
101310
101268
101374
100225
101322
101324
101077
101274
101157
101214
101166
101064
100956
101187
101301
101311
101260
101325
101053
101248
101218
100078
101203
101325
101202
101025
100925
101281
99769.7
101048
101325
101324
101198
101259
101191
101246
101324
101325
101325
101002
101267
101324
101119
101139
97979.6
100928
101165
100692
101325
101325
100493
101226
100985
101325
101131
101190
101157
101155
101308
101325
101124
101138
101159
101273
101195
101220
101243
101325
101325
101325
101274
101297
101311
101313
101155
101187
101325
101056
98628.9
98113
101145
101175
101322
101321
101272
101234
101042
100543
100566
101221
101325
101272
101270
101269
100948
100976
101316
101200
101251
101221
101189
101325
101325
101295
100771
101161
101222
101338
101316
100560
101256
101253
101084
101333
101325
96578.1
101158
101264
99191.4
101116
101187
101325
101294
101302
101209
101325
101294
101057
101221
101272
101282
101137
100606
101220
101190
101260
101325
101325
101305
101279
101293
101203
101194
101281
101325
101195
101300
101247
101176
101283
100779
101274
101155
101318
101243
101217
100267
99487.7
101325
101283
101010
100423
101325
101279
101325
95861.1
101325
101325
100319
96685
101015
101324
101204
101161
101325
103452
101208
101194
101268
101324
101325
101325
101325
101204
101191
101248
101325
101325
101170
101325
101230
101315
100395
101144
101352
101281
96796.6
101260
101325
101325
101255
101251
101325
101204
101325
101099
101325
101325
101325
101222
101321
101325
101325
101325
101187
101265
101285
101114
101325
101325
101325
101322
101325
101325
101325
101256
100228
101260
101325
101230
101381
101421
101293
101188
101261
101325
101325
101309
97695.1
101266
101325
101325
101325
101151
101325
101325
94652.4
101123
101246
101325
101265
101264
101325
101124
101325
101223
101177
101184
101303
101291
101325
101324
101304
101307
101196
101219
101261
101222
101315
101243
101325
101276
101267
101269
100897
100477
101325
101215
101091
100404
101226
101350
101168
101317
101165
101305
101133
101325
101282
101148
101318
101219
101192
101108
97648.6
101209
101279
101323
101132
77022.1
101323
101142
101325
101018
101325
101187
101325
101320
101260
101325
101308
101293
99026.3
98708.6
101301
101196
96704.9
101126
101325
101198
101171
101325
101325
101324
101073
101325
101228
101228
100154
101325
101350
101266
101325
101032
101231
101325
101325
101325
101325
101325
101031
101171
101325
101219
101330
101325
101325
101325
101325
101216
101325
101325
101325
101325
101325
101325
101325
101097
98276
101325
101111
101325
101325
101191
101325
101208
101334
101325
101126
101433
101325
101159
101325
101191
101231
101234
100507
101111
101325
101257
101325
101325
101206
100579
101216
101211
101325
101234
101200
101219
101325
101248
101182
100367
94764.5
97870.6
100723
100539
100580
100161
101388
101250
101197
101110
101325
98630.7
101325
101150
101234
101114
101325
95165
101323
100301
98512.1
101072
100241
101223
100693
101294
101325
101230
101152
100356
101325
101325
101289
96582.4
101300
101185
101279
101152
101311
96580.9
96884.4
101325
101325
101245
101226
96640.9
101325
101292
101144
101325
99351.9
101221
101428
99210
101325
101319
100410
101413
101222
99040.8
101325
101325
101325
101155
101168
101325
101325
101225
101169
101232
101325
101242
101325
101204
99240.8
101317
101232
98883.3
101247
101325
101203
98689.9
98920
96742.4
101289
94240.8
101323
96400.4
101207
96644.9
101325
101191
101325
101325
101325
97140.5
101325
101175
101325
101225
101325
101305
101234
101221
97249.7
101325
101217
101325
96095.7
97071.8
100918
101221
97480.2
101207
101325
101212
98882
101325
101322
101238
101323
97453.4
101325
101325
101325
101209
101250
101325
101325
97996.5
97905.2
101001
101191
101164
101324
101420
101325
101325
101144
101325
101314
99130.4
99051.8
101325
101285
99135.3
101202
101256
101205
101325
101134
101170
101015
101135
99068.8
101321
97832
101250
101322
99429.9
99003.6
100599
101026
101325
101249
101325
101318
99183
100043
99213.4
99467.1
100819
101059
99182.8
101232
96455
101204
101287
101152
100109
101325
101201
101250
101181
101211
101325
101182
101325
101325
101142
101325
101178
101325
101300
101156
101305
101256
101144
101314
101121
101149
101270
101264
101325
101183
101352
101248
101407
101150
101356
101325
101314
101315
101325
101324
101443
101187
101324
101102
101264
101193
97524.4
101325
101247
101123
101325
101325
101075
101180
101297
101133
101325
101202
101291
101281
101176
101131
101206
101311
101325
100065
100088
101276
101332
101325
101166
101325
101155
101191
101080
101270
97609.9
101324
101135
101325
101116
101336
101023
101325
101165
101120
101234
101208
101291
101202
101199
101325
101176
101205
101215
101268
101195
101244
98137.7
101528
101242
99543.5
101325
101245
101153
101241
101222
101325
101204
101178
101254
101194
101316
101254
101207
101230
101182
101104
101102
101234
101257
101260
100597
101240
101279
101324
101177
100999
101281
101262
101290
101325
101285
101132
101325
101298
100975
101213
101325
92711.6
101178
97327.2
101234
101226
100992
101079
101462
101275
101325
101325
101209
97279.9
101325
101172
101325
101325
101220
101195
98617.4
101216
101262
101325
100755
101110
101247
100605
101175
101197
101326
101325
101330
101306
101276
98528.3
101278
101325
101288
101120
101237
101223
101069
101325
101200
101255
101289
101259
100905
101325
101359
101254
101220
101038
101294
101325
101050
97134
101307
101214
97209.9
101325
101176
101276
101256
101325
101325
101293
101178
101184
101325
101325
101312
101356
101084
101220
101274
101325
101298
101254
97326.8
101286
101308
101325
101142
101261
101231
101198
101276
101181
101181
101325
101325
101325
100563
101325
101325
101199
101229
101255
101325
97246.9
99047.8
101325
101202
101325
101325
101323
101325
101325
101325
101388
101300
101325
101117
101168
101262
100192
101212
101325
101206
101325
101325
101325
101325
101325
99280.3
99405.5
97637.1
101227
101325
101325
101325
96979
101325
96696.8
96759.4
97300
97017.2
101325
100277
101325
100829
93751.8
101230
100337
100963
101096
101325
101234
97424.1
101254
101201
101272
96541.4
101325
101325
101246
101325
101187
101247
101215
101206
101263
101186
101288
100684
101128
101223
100487
101057
101102
101076
101279
100111
97770.5
101124
101270
101028
101201
100966
101145
100966
101237
100918
101055
101112
100145
101138
101288
101239
101272
101202
100529
100919
101243
101066
101325
101190
101105
101079
101113
101311
101212
97496.2
100975
101240
101344
100558
99973.8
101129
101325
101272
101107
100859
101110
101224
100649
101290
100951
100683
101062
101190
101216
101241
100114
101177
101199
100776
96932.2
101027
101284
100579
101307
100176
101235
101211
101059
101162
100588
100793
100831
100621
101209
93401.8
101054
100997
101257
101358
101125
101282
101222
101020
101308
100213
101302
101196
100903
101322
101325
99012.7
101058
100926
101089
101211
96317.8
99599.1
101279
101194
101282
100850
97235.6
100503
101175
101012
100418
101207
100901
101141
101256
97773.3
101121
101169
100994
101150
101272
97877.1
99932.2
100468
101283
101188
101325
101209
101173
101213
101028
101325
101321
100453
101210
101134
97526.3
101309
100578
100524
101318
101281
100532
100910
100753
100593
101064
99770.1
100751
101149
100548
101060
101211
101286
101257
101060
97277.9
101198
101315
98023.2
100945
101006
97169.6
101325
101044
96812.6
100642
101325
101194
100857
101250
101238
96827.1
101064
99993.8
100627
101120
101270
101217
101232
100584
101324
101225
101174
101325
96251.1
101253
96586.7
98250.8
101128
97486.7
97210.5
97944.3
100574
100521
99152.6
101204
101325
100535
100803
101320
101310
100544
101182
101137
101271
100857
101325
100752
101224
101173
99296.6
101104
100483
101234
101226
94998.3
101243
101138
98232.5
100476
101246
101325
101325
101325
101214
98274.6
101325
101176
101028
97748.4
101203
100119
101325
101213
101203
101187
98963.9
101325
101325
97051.5
101375
101233
101040
97865.5
101379
101325
100952
100573
100752
101227
100160
101325
97706.7
97917.2
101176
101325
97368
101043
101307
101131
97130.1
100595
100575
100182
99840.2
101301
100631
101249
100163
101325
101325
101093
100882
101110
101325
101089
99100.8
100929
101325
101183
100351
101276
101381
101325
97447.2
97917.1
101132
101138
101063
101207
100693
101160
100872
101280
100633
99230.3
101180
100971
101222
101338
101139
100870
101325
101289
101122
101028
100682
101162
100223
100246
101325
101228
100544
101325
101325
101120
96727
101138
101196
101194
101203
101124
101016
100964
101221
101275
101151
101143
101413
101115
101267
101333
100539
101051
101216
100737
101040
101072
101251
101101
101325
101185
100880
101241
101027
101212
101035
97484.6
100462
101198
101108
100438
101257
101222
100445
100453
101262
101109
100995
101170
100334
101222
100492
101220
101326
101325
101220
100459
101130
101325
101200
100447
99420.4
101150
100465
101325
101325
101191
101217
100417
100699
101325
100411
101302
99286
101389
101074
101144
100915
101324
100506
101205
101209
101267
100926
97316.3
101209
101143
101167
100778
101174
101325
100353
101325
100757
101394
101182
101259
101169
101194
101325
100901
101335
100977
101129
101091
101249
101209
101213
101219
101247
100525
101367
101203
101325
101083
101247
101192
101142
101159
100390
101260
101160
101087
101167
101160
101278
101228
101260
101154
100350
101245
101271
101235
101325
101068
101208
101176
101132
101373
101225
100904
101107
101189
101194
101226
101010
101196
100224
100213
100329
101144
100115
101083
101253
101152
100125
100362
101270
101300
101096
101140
100229
100691
101192
101323
101156
101191
101074
98981.2
101290
100354
100265
101325
101213
100994
101044
101190
101216
101065
101394
101263
100299
101229
101218
101250
101065
101298
101189
101192
101268
101132
101266
101317
100713
101119
101116
101119
101366
101303
98206.8
101325
101288
100861
100960
101154
101194
101179
101296
100918
96781.7
101046
101296
101325
101276
101252
101044
101138
101448
101247
100979
101228
101325
100468
101325
101237
101324
101325
97353.6
101181
100635
101325
101348
101075
100090
101004
98442.4
100020
101137
101213
101175
101249
101325
100208
100228
101325
101180
101239
101144
101202
101325
101164
101325
101143
101139
100962
101325
101151
101325
101208
101178
101164
101325
101325
101225
100947
101121
100939
101222
101201
101325
101308
101362
100269
101316
101222
101269
101207
101010
100397
100505
100354
101145
101254
95584
101227
101325
101256
101249
101205
101059
100459
101196
100982
101122
100200
101238
101252
101174
101434
101175
101301
101300
100078
101219
100683
100003
101203
101325
101325
101160
101202
101153
101383
101365
100924
101202
101002
100619
101126
100986
101320
101325
101325
101029
101047
101174
101325
100830
101241
100901
100850
101286
101268
101013
101125
101169
101292
101325
100679
101204
101130
101325
101325
101110
101149
101169
101102
101325
101252
101098
101102
101165
101043
101178
97573.4
101058
101080
101201
101042
101208
101193
101050
101246
100680
101068
101325
100469
101142
101193
101158
96386.8
101212
101377
101238
100849
101228
101164
101325
101238
101119
101142
101071
101067
101325
101199
101066
101182
101174
101198
101325
101206
101122
101063
101148
100793
101246
100987
101278
101007
98172.7
101226
100644
101033
100967
101325
101191
101020
101332
100869
101206
101234
101224
101165
101300
101325
101271
101197
101261
101013
101244
101269
101231
101038
101215
101224
101303
101325
101195
101325
101212
101149
101259
101311
101325
97497.7
97586.9
101130
101185
101325
101146
101284
101182
101263
100888
101325
96369
101208
100249
101211
101177
101234
101200
101106
100896
101325
101232
101133
101198
101173
101199
100829
100584
101231
101303
101298
100587
101288
100698
101165
101325
101365
101324
101149
98479.9
100932
100913
101023
101236
101325
100929
101205
101325
101160
100617
101333
101325
100468
101325
101282
101325
101325
101342
101143
101325
101191
100885
101325
101181
101139
92453.9
101393
101108
99256.7
101325
101216
101192
101178
101241
101044
101188
101142
100996
101258
101052
100652
101048
101091
101222
101026
101325
101325
100524
101206
101325
101157
101325
101399
101276
101325
100996
101145
101108
101094
101041
100575
97409.6
101321
101170
97203
101166
101210
98749.4
101311
98916.5
99025.9
98972
101314
101228
101186
101198
101325
101171
101265
101207
101354
101200
98189.5
101169
101218
99175.7
101173
101202
101060
97923.6
101325
101325
98877.1
101069
101325
101217
101128
101208
101325
99727
101210
101051
101317
101154
101311
100120
101325
100706
101150
101325
100932
101105
101290
100357
100179
101125
101087
101217
100840
101152
101183
101193
100723
101252
101325
101132
101127
100644
100511
100220
101083
100502
101277
101072
100895
100536
101305
101277
100796
101339
97404
101297
101251
101325
101323
100769
101312
101225
100685
96041.1
100896
100730
97316.8
101179
100949
100380
101259
101199
101422
100645
101089
100646
101051
100821
101208
97770.6
100681
101211
101255
100360
101124
101256
101227
101255
100986
101059
100990
96199.3
101337
101325
101282
101153
101325
96511.8
101226
101182
101108
100865
100913
101171
101073
101162
101171
101015
101147
101136
100650
101196
99711.1
101319
100851
101278
100931
100925
100552
101158
101113
100867
101198
101221
101251
101291
101066
101016
100894
100427
100821
100396
101292
99521.7
101293
101452
101114
101261
101248
101277
101119
101103
100829
101280
101297
101321
101091
101282
101248
101288
101102
101300
100980
101309
101216
101192
101291
100742
101321
100277
100167
101213
100487
101215
99998.2
101324
101325
101325
101366
101342
101325
100305
101230
101198
101154
101236
101199
101339
101134
101033
101156
101195
101241
101249
100371
100985
101288
99880.8
101375
101181
101243
101133
101325
100583
100660
100253
100577
101205
101268
101182
101041
101299
101135
101434
101193
101259
101200
101189
101289
101255
101246
101240
100602
100975
100755
101121
96499.1
101178
101270
100595
101297
101138
100647
101206
101234
101238
101135
97610
101015
101198
101325
101253
100506
101325
101352
101325
100753
100721
101323
101259
101199
101325
101199
101293
101207
101100
101276
101237
101141
101178
101156
101203
101167
101026
101171
100691
100932
100555
100886
101356
101416
100784
100736
101325
100933
101229
101129
101088
101126
101267
100478
100593
100671
100777
101183
100996
101164
100393
100639
101108
101266
101331
101090
100946
101203
101071
101073
100933
101136
101140
101184
101219
101011
101144
101037
101142
101341
101173
101202
101254
101183
101262
101258
101327
101252
101215
101237
101059
100563
100978
101002
101029
101281
100965
101229
101185
101221
101025
100795
101033
101201
101080
101208
101194
100932
101485
99435.3
98691.2
101021
101325
101024
101175
101325
101325
101066
101325
100702
101248
97246.1
101044
101267
101245
101247
101024
101197
101301
101070
101298
100828
100973
101335
101207
99413.8
101249
101243
101295
99962
100793
101250
101134
101264
101300
101150
101325
101252
101214
101232
101325
101277
101192
101232
101270
100992
101103
101172
101274
97787.4
100134
101325
101325
101152
100915
100552
101325
101219
98349.4
100680
101092
99005.6
101052
101231
101299
101531
101116
101150
101183
101093
101171
101224
100420
101299
101248
99066.7
96221.2
101126
100323
99695.6
100989
101155
101155
101217
99473.5
101227
101245
101173
101293
101248
100513
101130
101155
101193
101247
101243
101130
101159
101319
99336.5
97374
101277
101300
101318
101180
101107
101192
101256
101115
100951
101189
101374
101223
101248
101204
101299
99896.4
101199
101057
100889
101106
101203
101310
101326
101321
100972
100247
100980
101262
100713
100785
101288
97958
101194
101050
101158
101276
101459
101235
101178
101252
101006
101017
100938
101293
100949
101123
101108
101033
101095
101283
101185
101188
101216
101233
97947.3
101081
101194
101253
101228
101264
101299
101015
101350
101247
101224
101171
101104
101159
99785.9
100427
101008
101404
101144
101083
101348
101167
101061
100353
101057
101237
101159
101196
101261
101160
98754.5
97550.6
101297
101206
101195
101254
101330
101338
101181
101211
101209
100809
101054
101212
100370
101129
98020.9
101194
101165
100576
101030
101241
101073
99290.6
100487
100871
101166
101216
100503
101233
101246
100702
100798
101222
101257
101266
101200
101248
101123
101145
101193
101194
101092
101325
101036
101253
101250
101176
100402
100601
101294
101330
101087
100994
101079
101212
101276
101242
97980.1
101199
101160
101332
101310
101202
100939
101012
94761.9
101317
99899.4
98495.3
100997
101254
101024
100938
101025
100701
101223
100820
101199
101175
101218
101199
101222
101343
101360
101235
101087
101038
101202
101192
101257
101293
101110
100849
101260
101285
96597.4
101324
100672
101156
101105
99314.4
101139
100754
101293
101245
101094
101255
101455
101209
101242
101097
100755
100861
101282
99862.2
101424
99528
101388
100836
101185
100833
101219
101219
101400
101325
98897.6
101325
101325
101325
101325
101325
101325
101305
101091
101325
98930.1
98967
101325
101202
101176
101254
101320
96142.8
101358
101216
101249
101235
101323
99697.9
99474.6
101324
101373
101160
101428
101325
101325
101325
101326
99446.7
101233
101280
101296
101144
101324
101099
101014
99631.3
101325
101188
101230
101325
101275
100475
100999
101096
99535.5
101125
101319
101221
101251
101185
101325
101200
101325
101246
101325
101304
101221
100194
101325
101056
101189
101282
101316
101307
101325
101140
99764.3
101275
101299
101231
101325
101325
99302
101265
101178
101201
101325
101244
101325
101192
101325
101325
101220
101325
101221
101148
101325
101325
101265
101325
101321
101325
101314
101325
100804
101325
101325
101325
101325
100977
101325
101239
101240
101311
101194
101325
101064
100991
101325
101167
100653
101230
100984
101200
100812
100593
101227
100743
101240
100721
101112
101101
101324
101178
101110
101324
101111
101228
101325
101325
101244
101325
101325
101325
101325
101325
101325
100573
100619
101325
101207
100796
101325
101089
101325
101101
101325
101325
101325
101137
101320
101325
101325
101325
101183
101325
101158
101325
101272
101160
101222
101325
101325
101266
101288
101240
101325
101306
101218
100942
101132
101212
101294
101246
101206
101325
101325
101322
101325
101325
101301
101187
101323
101217
101174
101325
101280
101325
101325
101325
101324
100844
101234
101325
101325
101325
101325
100879
101325
101324
101056
100692
101012
100510
100447
101220
101176
100778
100936
101325
100527
101204
101419
100899
96859.1
100814
101126
100639
96129.8
101066
100806
101085
101325
100952
101279
100628
100811
99936.6
100968
100745
100723
99614.4
99163.7
99478.8
101187
101276
101194
98211.7
100818
101099
101292
101351
101325
101257
101325
100999
101325
101262
101158
101108
101161
101001
101420
100950
97798.1
99809.8
101138
101178
101188
99886.4
101285
101142
101081
101175
101197
101108
101348
101412
101222
99825.2
101177
101180
101172
101194
99933.9
101299
101325
101324
101165
101261
101315
101325
101314
99550.7
98597.7
101161
101241
101171
101190
101039
101208
101218
101098
101221
101310
101197
101383
101416
95015.3
96523.7
99888.7
101195
101321
101276
101245
101248
100578
101353
101404
101087
101308
100031
100692
100171
101306
99989.5
100091
101267
101213
101210
101192
101246
101232
98751.8
100984
101317
101146
101083
100380
100978
101252
101130
101155
101325
101227
100996
101190
101262
100982
101229
101129
100450
101200
101195
101133
101211
100803
101236
100376
101164
101212
101062
100579
101103
101273
100311
101325
101211
101234
101094
101055
101110
101313
101181
101209
101242
101086
100978
101119
101032
101041
101266
99895.5
101021
98120.9
101325
101315
100903
96342.7
100793
100799
100983
100522
100607
100491
101035
100931
101149
101127
101148
101113
98900.7
101149
100389
100361
100995
101308
101174
101207
100577
100934
101120
101016
101041
101131
100565
101217
99687.7
100516
101251
101130
101305
101329
101123
100595
101060
100741
101085
99718
101155
101066
100277
100441
99807.3
96998.2
101236
101184
100308
100358
101295
101026
100545
101159
101134
101325
100655
101261
101249
101267
101184
100652
100847
101199
101148
101263
101139
101240
101198
101027
100847
100247
101001
101011
100682
97966.6
101228
101240
101221
101314
101274
101010
100566
100899
100648
101318
100374
101321
101311
100302
100720
100992
100935
101317
101308
101322
101275
101182
101020
101089
100389
101041
100998
99104.1
101273
101167
101267
101303
101162
100967
97334.8
101311
101313
101001
100735
100489
97559.1
101225
100875
100956
101081
100734
97498
101304
100724
100591
101280
100771
100921
98360.5
100955
99975.2
101006
101023
101104
101158
100959
101325
101316
100401
100944
100728
100550
100607
100538
101318
101060
99936.5
100954
100366
100956
100929
100613
100660
100733
100357
101082
100669
98820
101161
98886.1
98757.5
100954
101132
101181
100932
100616
101221
100634
99804.5
101096
100195
101306
101102
101031
101095
100948
100896
101030
101185
101070
101069
101169
100593
101289
101055
101350
101157
101047
101325
101214
101325
101324
101195
101180
101005
101325
100953
101160
100317
101325
101066
101052
101325
100880
100963
101039
101059
99534.2
100760
101107
100708
100969
101164
101070
100306
101089
101182
101059
101025
100226
101125
101250
100428
100430
96486.4
101136
100919
101060
101035
101215
101049
101183
101018
100894
101034
101079
98125.1
101082
101072
101075
98879.5
101072
100971
98246.9
98072.2
100851
99178.5
99609.9
101018
101072
101048
101414
99720.7
98698.8
101198
101164
101085
101133
101174
101041
100958
98969.8
101222
100981
101216
101196
101014
100930
101194
96922.1
98928.7
100878
98562.5
101068
100978
100928
100936
100928
101215
100998
101035
100912
101064
101281
100603
99688.2
100887
100354
100825
101066
100330
100912
100853
100928
100959
100980
101009
99277.1
101013
100939
101022
100767
101178
100718
101293
100678
100611
99945.7
100336
99868.7
101325
99342.9
98246.6
101067
101135
100334
100801
100630
100754
100936
101072
101018
101082
101019
101032
101097
101231
101061
100958
101205
101016
101194
101254
100963
101083
101235
101204
101114
101231
101364
101140
100012
100908
101023
100938
101200
101203
97645.5
101262
101209
100162
100614
100765
99603.1
96904.9
101010
101199
100768
100803
100671
101175
99702.4
101109
100724
100873
99416.2
101097
101003
101027
99195.7
96743.1
100570
97839.8
100037
101285
101073
101071
100928
101025
100927
101171
101206
100939
100811
100349
100901
100971
100952
101125
101057
99180.5
101065
98921.9
100987
100978
101056
101000
100953
99139.5
99160.9
100966
101067
100977
101011
99488.7
101138
101116
101073
99100.8
100870
101240
101098
100998
100519
101185
101149
101101
100775
100361
100411
100473
101281
100605
100848
100268
98990.3
97879.7
101150
101171
100886
99237.3
101325
100177
100754
100969
101036
101092
101117
101063
101003
98117.6
101175
99811.1
101095
101007
101172
101143
101198
101041
100769
99633.7
99827.2
101329
101275
100903
99762.6
101048
99852.5
101193
101189
100451
100615
100574
101106
100281
101002
101055
101207
99465.4
101323
101181
98265.5
101235
99454.9
101173
101170
98166.4
101324
100134
97454.4
100314
99811.7
101059
100664
99046.6
99460.6
101226
101325
99754.3
100872
100747
101234
99582.6
100602
101112
101098
100896
100454
101152
100926
100285
100333
101076
101027
101021
100499
99146.4
100860
101066
100569
101218
101010
101047
100934
100990
100982
99485.1
100969
101011
101041
101048
99474.8
100643
101016
101056
100432
100801
101247
96544
100450
101010
99522
101061
101080
100108
100553
101045
101292
99424.7
101324
100812
101146
101146
101191
101108
100929
100778
101300
101236
99835.3
101210
100426
99810.1
101257
96486.7
100953
100565
100776
101180
97458.2
99206
100803
99745.7
100408
97642.5
100611
99857.1
99440.6
101180
100836
101053
101112
100988
100580
96845.4
97753.7
101161
101144
101163
100945
99553.8
101063
101090
101186
100204
101325
100961
99538.9
100150
99341.9
100800
101184
101013
100287
100216
100999
100652
101000
100204
100847
101258
101035
101287
101262
101215
100489
101243
100993
100208
99926.1
99960.8
99933.3
101273
96884.6
101157
101279
99944.5
100966
101132
101210
101007
101225
100983
99834.9
101095
101071
101158
100747
99486
100882
101202
100965
99939.9
101116
101239
101158
101144
101287
101225
100190
101094
100066
101052
101230
101125
97666.9
101197
101217
99775.2
101038
101011
101027
101056
100454
101087
101098
99176.9
100963
100818
100968
101011
100515
98114.6
101005
101042
101064
101071
101020
101178
101106
101227
101183
101002
101267
101293
101133
101048
101052
100840
100248
100655
100494
101076
100907
100510
100302
100285
101133
101097
100805
101138
101118
101211
100548
100209
101063
100654
101117
100831
101104
100951
100810
101075
100981
100578
100443
100627
100894
101266
101007
97000.4
101158
100996
101180
101154
101027
101286
101210
101098
101031
101332
101067
100863
101269
101134
101193
101261
101183
101235
101107
101096
100961
101070
100082
101338
101087
101291
101180
101037
100581
99986.3
101066
101324
100164
101282
101176
100482
100853
101071
101104
100842
101183
101017
100074
100855
100246
100794
100663
100488
101312
99925.1
101309
100189
101193
101246
101164
101087
101196
100828
101110
100283
100735
101144
100978
100944
97287
100051
98301.8
100296
100743
100857
101071
101216
100786
100714
101055
101055
98427.4
101003
101255
100006
100981
100810
101209
101054
101282
100917
101231
100954
100594
101143
100821
101222
101325
101115
101200
101111
100285
101001
100219
101202
100596
101321
100473
101010
99941.7
100932
101147
101155
101160
101222
100696
101223
100810
100706
101069
101313
101132
101317
100670
101233
101217
101273
100972
101109
101197
100690
101263
101187
100872
101061
101159
100921
100811
100836
100540
100862
101233
100814
101305
101180
99939.4
101248
100769
101187
100996
101114
101045
101148
101276
101105
101214
100986
101264
101111
100738
100721
100678
99588.5
101240
100936
101095
101172
100932
100928
100351
101133
101314
100862
101084
101090
101081
101315
101152
101198
100246
101111
101101
101325
101101
100815
101133
100841
101104
101114
101119
101254
101151
101253
101195
101238
100784
101093
101325
101097
101240
100788
101035
100730
100422
100708
101136
101040
101247
101228
100965
100704
100836
97464.5
101377
101188
101230
100815
100300
101085
100892
100784
101175
101269
101083
100428
100969
100479
100931
101209
101114
100806
100175
100806
101239
101075
100754
101238
100749
101100
101226
101248
101055
100839
100369
101157
101321
100716
100164
100858
101211
101214
97843.4
100997
101005
101245
101191
101336
101325
101325
101349
101221
101325
101242
101317
101254
101325
101222
101325
101297
101325
101154
101221
100758
101325
101175
101102
101325
101212
101325
101325
101325
101325
101325
101325
101076
101312
101202
101029
101142
101086
101270
101133
101187
101243
101278
101189
101170
101179
101167
101054
100883
101122
101077
101101
101236
101206
101089
101107
101225
101231
101279
101367
101101
101220
100917
101136
101122
101274
100905
101088
101205
101260
101152
100851
101259
101096
101246
100877
100737
101149
100582
101255
101244
101311
100670
101155
101181
101262
101259
101256
101248
101244
101296
101184
101315
101324
101319
100614
100560
100420
101161
101325
101325
101105
101233
101325
101325
101325
100930
101026
101295
101325
101325
101325
101325
101325
101325
100850
101260
101325
101185
101325
100987
101296
101201
101311
101097
101325
101310
101150
101123
101301
101220
101164
101324
101325
101116
100771
101325
101325
101195
101200
101325
101325
101325
101325
101052
101217
101325
101152
98887.7
100916
101212
101275
101072
101137
100974
101321
100958
101325
101325
101303
101182
101208
101270
101056
101325
101325
100979
101322
101325
101325
101399
101101
101325
101325
101325
101325
101325
101325
101325
100906
101245
101272
101116
101259
101117
100762
100952
101325
101325
100850
101325
101325
100837
100995
101325
100396
101325
100966
100721
101325
101285
101417
101154
101197
100874
101325
101325
101220
101172
101325
101325
100661
101325
100628
101177
101325
101325
100973
100989
101310
100253
101247
101264
101177
101190
100988
100631
101183
100971
101236
101113
101180
101325
101034
101124
101233
100882
101321
101270
101065
101202
101443
101146
101270
101289
101312
101248
100995
101325
100762
101348
101162
101258
100878
100983
101225
101213
100967
101260
101259
101265
101029
101053
101283
101156