/*--------------------------------*- C++ -*----------------------------------*\
| =========                 |                                                 |
| \\      /  F ield         | OpenFOAM: The Open Source CFD Toolbox           |
|  \\    /   O peration     | Version:  2312                                  |
|   \\  /    A nd           | Website:  www.openfoam.com                      |
|    \\/     M anipulation  |                                                 |
\*---------------------------------------------------------------------------*/
FoamFile
{
    version     2.0;
    format      ascii;
    arch        "LSB;label=32;scalar=64";
    class       volScalarField;
    location    "0.4";
    object      alphat;
}
// * * * * * * * * * * * * * * * * * * * * * * * * * * * * * * * * * * * * * //

dimensions      [1 -1 -1 0 0 0 0];

internalField   nonuniform List<scalar> 
32842
(
0.000785401
0.000786617
0.000785497
0.00078548
0.00157786
0.000785461
2.65134
3.39091
0.00078548
0.000785284
0.421213
1.22573
0.000785282
0.00078548
0.000782149
0.000784872
0.000784341
0.000785436
0.000784453
0.00155126
0.00167557
0.00234003
0.00150914
0.000785499
0.00160279
0.000785479
0.000785468
0.00124855
0.761749
0.000783822
1.31166
0.639555
16.9615
0.000784081
28.6656
6.75965
0.00190821
0.000788748
0.000787998
0.00078519
0.000785485
0.00166873
0.00078548
0.00078548
0.442377
0.000783382
2.43897
0.000784636
0.00163677
0.119462
4.00133
0.00078548
0.796581
0.26196
0.000785492
0.0103387
0.000785479
0.660656
0.000785484
0.00078548
4.42432
0.765206
0.854783
0.00168599
0.000785896
11.0537
0.000785485
0.949731
0.592481
0.000787824
0.00123271
3.13965
0.674041
0.00078548
0.00078548
0.000781373
0.220937
0.00078548
0.672444
1.17992
0.00156685
0.00078548
0.00078548
0.749569
1.05642
0.00078548
0.00078548
0.00844254
0.154228
0.000785283
0.00161019
0.00162052
9.16447
0.000784611
0.000785478
0.000783893
0.653386
0.000783342
0.973785
0.00078548
0.00078548
0.00228698
0.000789347
0.618579
0.668295
0.611659
1.10156
0.000697685
0.710226
0.000784906
0.000785344
0.0007851
5.17078
0.000785328
0.000789509
0.00165054
0.734954
1.12413
0.000789696
0.000784716
0.000784847
0.000785285
0.0132457
0.000785494
0.000741808
0.666372
0.530414
0.000785011
7.43634
0.000785491
0.00078548
0.000743736
0.00272114
0.662183
0.00270184
0.000785301
0.00494646
0.163008
0.000784132
0.000783873
0.718046
0.000784196
0.714407
2.0031
0.000784959
0.000784184
17.0152
0.000784289
0.00078548
0.000784658
0.000806948
0.225405
0.00150032
1.97895
0.00078543
0.00078548
0.00078548
0.000784485
0.000784696
0.000785334
0.000785562
0.00078548
0.00150019
0.00078548
0.000785034
0.00078445
0.00078548
0.000784987
0.000786285
2.77146
2.2417
0.00227414
3.08011
0.00078548
0.00170439
0.881954
0.000784075
0.000788669
0.00078548
0.000785062
0.00121166
0.00078403
0.000784855
0.000785476
0.739585
0.000784712
0.678714
0.000784085
0.00078536
0.000784154
0.000783839
0.116906
0.580619
0.00078548
0.603348
0.000785907
0.000782597
0.000786027
0.651982
0.000784636
0.000783378
0.000792943
0.125717
3.10549
2.03206
0.00521449
0.000785868
0.00167599
0.607083
0.000785944
0.000785333
0.000810886
2.87196
2.9154
0.000784179
0.00078548
0.000786079
0.000788021
0.00078559
0.000784806
0.0959461
0.000785478
0.000785355
0.000785644
0.00217192
0.51052
0.00078549
0.629946
0.000785237
3.95169
0.000785194
0.000785221
0.000782109
0.000785479
2.84224
0.00154761
0.00157769
0.294909
0.000786127
0.76584
0.123198
0.000786501
0.000785922
4.48671
0.000784381
0.000784565
0.809029
0.000785472
0.000785473
0.000786331
0.00078548
0.000785468
0.000784975
0.653472
0.000785403
0.000785459
0.00078509
2.489
0.000784534
0.000784838
0.000785434
0.00078548
0.00078548
0.000785482
0.498136
0.000785467
0.000785242
0.000784282
0.000786919
0.000785493
0.000785342
0.658954
0.000785419
0.502837
0.000785457
0.88715
0.000785226
0.00225071
0.000785479
0.000785979
0.000785335
12.3593
8.80872
0.00078548
0.000784862
0.00552385
9.27153
0.00078548
0.00167768
0.00078548
13.1726
0.00078549
0.589243
5.95595
0.291715
0.000760967
0.584477
0.000785136
0.000783675
0.00148718
2.03122
0.000785423
0.000784202
0.000785623
0.00078548
0.00078548
0.00078548
0.00078548
0.000783162
0.772329
0.000785998
0.00078548
0.761462
0.000784935
0.00078548
0.000784695
0.000785513
1.49666
0.00078468
0.00078352
0.000785382
0.0851004
0.000784685
0.00104084
0.000785493
0.000784662
0.000785196
0.000785492
0.000785915
0.00078548
0.000785873
0.689911
0.00078548
0.00078548
0.000784228
0.000785479
1.28729
0.595093
0.00078548
0.000784578
0.000784889
0.000785104
0.0043203
0.00078548
0.76972
0.00078548
0.000785479
0.620577
0.886374
0.707428
0.000793691
7.9763
0.000784199
0.65172
0.00078534
0.000781764
0.00228919
0.000785482
0.000784981
0.000784612
0.00078548
0.00078548
0.000785177
1.36301
0.000785446
0.000784647
0.00078548
0.00078548
0.671523
0.00145339
0.00078548
11.694
0.000785077
0.00241568
0.00078548
0.713692
0.00212218
0.00078548
0.000304573
0.00151492
0.000784475
0.781904
0.670064
0.000784587
0.000786158
0.000785496
0.00078548
0.000785475
0.000785476
0.000784597
0.000784743
0.000785189
0.000784426
0.000785478
0.000784444
0.00078548
0.000785169
0.000785201
0.000784998
0.000785644
0.151813
0.00078548
0.000784389
0.000786813
3.0858
0.00078479
0.000784968
0.00255735
0.000785479
0.0019003
0.522893
0.000785122
0.00078548
0.000784684
0.00078477
0.000785383
0.000785479
0.000785336
0.000784128
8.0946
0.000784496
0.673953
0.00078548
0.00187046
3.59282
0.00078548
0.000784486
0.00078548
0.000729078
0.000785488
0.000783346
0.00078548
0.000785479
0.686053
0.00156475
1.30411
0.000785241
12.1701
2.73372
0.726981
0.0016949
1.41708
0.00183107
0.740991
0.000787369
0.000784646
0.00112554
0.000785492
0.00143319
4.55105
0.000785497
0.00078435
0.000785529
11.3815
0.00138515
0.000784526
0.000784421
0.00160931
0.000784817
0.00079209
0.000784322
0.00173663
0.00078548
0.000785483
0.00078548
0.00078557
0.000784477
0.745724
0.000784257
0.000786444
0.00078548
0.00175041
0.00159207
0.00078548
0.000785961
0.749941
0.696394
0.00078548
0.00078549
0.00078548
0.00078548
0.00156878
0.000784665
0.0512012
0.748081
0.000784365
0.000785492
0.953817
0.000796828
0.00078548
0.00191101
0.000788224
0.00114593
0.000811161
0.702842
0.00169362
0.566631
0.750655
0.00136255
0.000783258
0.0020583
4.83682
0.000785514
0.702982
0.00211903
0.969843
0.00138471
0.000785368
4.69465
0.00192298
0.000784209
0.677342
0.000783224
0.657424
0.000784337
0.00078549
0.00217849
0.00253572
7.11034
3.96605
0.604167
2.41433
4.65227
3.73635
9.60593
0.727099
0.000785274
0.000784196
0.00078621
0.74942
0.477209
0.875102
1.08013
0.000784339
0.000784271
0.00140443
0.317006
0.000785501
4.04861
1.07265
0.000792182
1.27279
0.000497579
3.81731
0.000786913
0.00078548
0.000784573
0.713197
1.9252
0.00078548
0.00176797
0.000786176
0.172376
0.589669
0.000784521
0.000785144
0.000784147
0.000785477
0.0793773
1.37906
0.00078548
0.00078548
0.000784327
0.650356
0.154378
0.93924
0.000785049
0.000784605
0.00078548
2.94634
0.760261
0.567517
1.49061
0.580899
0.000785479
8.40766
0.583464
0.000785379
4.25632
0.000785481
0.00157378
0.00078548
0.0010513
0.00159288
0.00151658
0.00078548
0.000784114
0.000784414
0.000784373
0.758584
0.00175468
0.000785488
0.000785228
2.68825
0.000785479
0.00383894
1.73152
0.899896
0.000783858
0.000785026
1.71753
1.50224
16.9828
0.000784781
8.92808
1.07948
0.173023
0.000789324
0.31838
0.000785487
0.000785334
0.000785496
0.00078548
0.00078548
0.205798
0.0016177
0.000784696
0.00078548
0.000784246
0.00078548
0.000782737
0.00078469
0.000784697
0.0643013
0.928031
0.000784574
0.00078548
0.127154
0.402149
0.250122
0.000783503
0.185424
0.000785341
0.00078548
0.000788311
1.72702
0.677331
0.000785479
0.00189248
0.00078548
0.646939
0.00078548
0.00078548
0.000785488
0.000785421
0.261297
0.00078548
0.00078548
1.99776
0.192258
0.000773588
0.000784692
0.000785301
0.595911
1.06136
0.00078548
0.683005
0.00162735
0.00078548
0.000785478
4.01289
7.79896
0.00078548
0.957005
3.50694
0.000785065
0.355301
0.000784247
0.00078548
0.002077
0.00205406
0.000842053
0.000785718
2.63243
0.000785479
3.23412
0.000785429
0.00078548
2.02273
4.97286
0.956301
0.402741
0.00078548
0.000785031
0.00145138
0.00152423
3.00272
0.344561
6.44616
6.56722
0.000787171
0.000790559
8.72683
0.000785399
0.826113
0.000784984
0.000789523
0.839775
0.290054
0.000784601
0.000785049
0.000785434
0.000784999
0.000784819
0.00078548
0.000784837
0.00078548
0.00078548
0.776357
0.00078548
0.000787312
0.00078548
1.22294
0.00078503
0.000785528
0.000785807
0.575386
0.000785477
0.000783974
0.000776003
0.000783516
0.000784729
0.000785488
0.000812327
0.000786187
0.000784669
0.000783781
0.000783604
0.000134807
0.000783196
0.00195965
0.00109421
0.00174789
0.00078548
0.00214966
0.0026823
0.56209
0.00078384
0.000785544
0.00195961
0.170813
0.00078548
0.51291
0.00201714
0.00078548
0.00078548
0.000705959
0.000784621
0.000784753
0.788062
0.00078548
0.000784288
0.000785104
0.00188151
0.653338
0.000784032
0.00197579
0.000785476
0.00145114
1.64918
3.99585
0.0017283
0.00078535
0.88618
0.00078409
0.00078548
0.0007848
0.000784227
0.000791752
0.000780627
0.163092
0.00078548
0.000789184
0.798857
0.00210598
0.000784094
0.000786728
0.00078548
0.877676
0.00279112
0.721695
0.00078404
0.581019
0.522891
0.00168716
0.000785492
0.00141894
0.000784693
0.00175309
0.000784451
0.000784506
0.00165816
2.81996
0.64114
0.000784425
13.5793
0.000784369
0.54226
0.000784889
0.000785408
0.000784207
0.00078548
0.000783212
0.00078957
0.000784557
0.000784672
0.000785478
0.000784625
0.000784572
0.000785789
0.656617
0.00079288
0.121786
0.000785639
0.000784791
0.0018567
3.45926
0.00078533
0.000785429
0.00165307
0.000784968
0.000788784
0.000785749
0.00220326
0.885468
0.00078548
0.000785464
0.000788064
0.000784577
0.000785471
0.000786052
0.000784423
0.00078548
13.0056
0.00078463
30.2917
0.000784342
0.000784429
0.000785575
0.000784783
0.00165494
0.000785395
0.00078548
0.00078548
0.000784681
0.200997
0.00078548
0.00078915
0.711094
0.000783888
0.662383
0.000784843
18.0634
0.000784175
0.00078518
0.903875
6.69672
0.000782265
0.000783936
7.91402
0.00202648
0.000784432
0.000784645
0.00078548
0.000783593
0.000783949
0.649707
0.703843
0.67164
0.00078548
0.725186
0.000784398
0.000785746
0.000787184
0.00145809
0.00109787
0.000784653
0.000785041
0.000785468
0.000784867
0.000788495
0.00078548
0.000785155
0.000783874
0.000783374
0.0144739
0.00199983
0.00078548
0.131298
0.233664
0.000782166
0.000551662
0.0646804
0.00078548
0.000784794
0.000785057
0.503465
0.00078548
0.00078548
0.629716
0.00206256
0.000784657
0.00078548
0.00078548
0.000784505
0.000953331
0.157913
0.000785299
0.000783216
0.561827
0.000786316
0.000786005
0.991095
0.000784847
0.000785475
0.000785494
0.000784926
0.644843
0.000784863
0.000783283
0.000785459
0.000785435
0.00203175
0.00078548
0.561141
0.00158235
11.5235
0.00078548
0.00078548
0.000785146
0.000785358
0.000785167
0.00078548
0.0736434
1.45259
0.0013711
0.0125862
0.00078548
0.00146234
0.00078548
0.00078548
0.000787394
0.00078548
0.000783948
0.000785472
0.00078548
0.00078489
0.00078475
0.000785459
0.219949
0.000785155
0.931237
0.00078531
0.773008
0.751317
0.00078548
0.00149784
0.754733
3.0116
5.51529
0.016271
0.000785335
0.000785495
0.00078548
0.000785495
0.135597
0.000785493
0.187229
0.119471
0.0491633
0.127642
0.00111118
8.21804
0.00078548
3.46835
6.05003
0.000784779
2.50339
0.000329968
0.000783941
0.00078548
0.000784172
28.2393
0.000784419
0.695732
0.00161843
24.8389
0.487062
0.786503
0.00238593
0.00078548
0.000785211
0.000783684
0.000785847
0.000791634
0.000785434
0.000784452
0.000785014
0.156736
0.00204321
0.000783763
1.76447
0.000784276
0.000784456
0.000785558
0.000785108
2.20981
0.257925
0.00078388
0.00078569
0.000784533
0.685198
0.0856957
0.000783767
2.1344
0.71709
0.106849
0.000784815
0.000784958
1.27915
0.77984
0.000784149
0.000786708
0.000785494
0.000785488
7.11522
0.000786308
0.506592
0.000785123
0.00078548
0.000784456
0.00078413
0.000887243
7.0845
0.00078427
0.000785747
55.3748
0.115548
0.623327
0.00078561
3.99844
1.10143
0.000784845
0.000785487
0.000784928
0.908104
10.4049
0.000785281
0.00174103
2.04786
0.000784364
0.00105173
2.34104
0.000783953
0.000784399
0.000787878
0.000784161
14.2785
0.00078562
0.000785109
0.0990641
32.3783
0.00114992
0.00122362
5.51624
0.000785185
6.66211
0.486695
0.000785474
0.863584
0.402312
4.47411
2.36062
3.33768
3.48157
0.00078561
2.80345
0.632941
0.000702858
0.000785064
0.000784076
0.000784919
0.000784768
0.000784982
0.000784923
0.000783769
1.84908
0.000785472
0.000785357
0.0143484
0.00078548
0.000783848
3.58336
0.112344
0.00178292
0.0009424
0.000785237
0.322529
15.5021
0.631126
0.000785041
0.000785188
0.000786274
0.332081
5.22958
0.00242091
0.000771032
0.317503
0.000785821
2.00486
0.000814345
0.000784091
0.23585
0.00189352
0.000784715
0.0309221
0.00078464
0.000784539
0.187379
2.81259
4.49904
0.000784116
0.000784909
0.00078548
0.000784356
0.000788909
0.000915778
7.97343
0.00078548
0.000785479
5.98932
0.000784341
0.000785203
0.0830144
0.000785476
4.4392
4.73234
0.000785479
0.000784872
5.14693
1.77147
4.90721
2.15875
0.000786367
12.0225
0.814112
0.00270132
7.89236
0.0334225
0.822563
0.000783921
0.000784145
0.000737467
0.402102
0.00250493
0.000785161
0.219329
0.623305
9.97492
0.0872594
0.00078548
0.0563937
0.61408
2.09443
0.00078548
0.000784432
6.94175
0.000785763
0.000789389
0.216087
0.00079464
13.2948
4.10809
0.00345695
0.00114332
0.000785262
0.000784222
4.93484
0.342769
0.000783047
0.000788106
0.00078548
0.256696
0.000786707
0.200742
18.3627
0.000787793
0.381818
2.67777
0.0579095
4.341
5.32606
2.24708
0.000790863
0.751258
4.78632
2.01287
0.00135831
0.000785477
4.93221
0.000783791
0.00074464
0.00257351
0.2143
0.64768
2.84917
0.0020656
0.785932
5.01956
0.00078467
5.77386
0.00233865
0.789935
2.00628
0.000783281
0.731124
0.345698
3.44943
0.00259853
0.000785483
0.792059
0.00078548
0.00166585
1.57624
0.00152163
0.000786258
0.632155
0.325707
0.000783433
10.872
0.00078548
0.000784349
0.000784453
0.000784326
0.801655
0.00146608
0.00078548
0.171388
0.505291
0.000783764
0.000786894
28.5461
0.000784356
0.00078548
0.000785917
4.75148
3.80898
0.000785029
9.04151
0.00078548
2.95238
0.288018
0.000794919
0.649863
1.48707
0.0454206
0.00435107
0.000786215
0.538838
10.5279
0.234833
4.11403
17.2678
0.00168551
4.02424
0.000784653
9.02517
0.000784009
0.62431
0.000786238
3.23994
0.000784102
0.001649
0.00117554
1.15992
0.412207
0.00161844
0.000785991
6.32455
0.589189
0.000784532
0.00078548
2.60986
0.110404
0.000783623
0.845391
0.000784626
5.32934
2.23919
0.850517
0.000785939
0.000785254
3.03869
1.77889
0.00179995
0.000785964
0.0020516
0.000784369
0.000785175
0.360333
0.00078548
0.666078
0.601777
0.000785978
0.588686
0.000785134
2.00361
0.778365
0.00078548
0.00279508
0.781197
0.000785485
0.00078548
0.00078587
0.249374
0.000784304
0.000787985
0.000787955
0.00219518
0.000787553
0.00079188
0.00078505
0.000785416
0.000785192
0.000786577
0.000784274
0.000785923
0.00078536
0.000785246
0.000784873
3.05769
0.000788128
0.000785341
3.16373
0.0005539
0.000784064
0.000784995
0.000787691
0.00078548
0.00203868
2.57897
0.000783266
0.000786179
0.000790347
0.000824251
0.288954
0.212739
0.00284649
0.539917
6.20069
0.000784974
0.000784077
11.2904
6.90193
0.00171461
0.842268
0.00078585
0.000783425
0.806971
0.00181625
4.30832
0.00200224
0.00222758
0.00135526
0.000783372
4.50918
0.00078601
0.000785499
0.00212603
5.28673
3.58232
0.494907
4.69266
0.00152092
0.00145523
0.00652261
0.000782967
2.25977
2.96745
0.00148977
0.888223
0.000784357
3.41798
0.000784427
0.000867946
0.000788949
1.43089
0.00078548
5.93195
0.000785809
0.000785877
0.00220504
3.66707
0.284905
0.00102594
0.000784372
0.000785469
5.72881
0.000785829
0.00078548
0.337839
0.00078548
2.65348
0.000781238
0.000783584
0.000793874
0.000784086
0.000783923
0.00078548
2.6676
0.000784757
0.416091
0.266775
0.000786004
0.000785747
0.000783746
0.000784806
0.00078579
0.000784733
4.93438
0.000784523
0.000783597
0.00078548
0.00215733
0.513807
0.000783458
0.000790181
0.00078515
2.83637
0.000781095
0.000783942
0.000784425
0.000783936
0.000785971
0.770684
0.000783916
0.000784736
0.000783566
2.26672
0.00078972
0.000784001
0.000785867
0.762244
0.000789236
0.000788801
0.310773
0.000784378
0.000789011
0.000786146
3.2223
0.000785094
0.000784343
0.000697009
2.19946
5.13152
0.000784651
8.34342
7.66978
6.10046
0.000784373
7.64228
0.243177
0.00154863
0.000785349
9.71397
6.92652
0.000782914
0.000785492
0.000786217
0.000784052
10.0017
7.00984
0.000784694
0.00078548
0.000746293
0.000784931
0.000788822
0.745656
0.000785186
2.5865
9.8924
0.000785486
0.000807456
0.230637
0.000815818
0.000538737
0.000785641
0.000785583
0.616282
0.000785073
3.73255
0.000783217
0.000791578
0.000785147
0.814461
0.0021439
0.000784159
0.000782514
0.000785448
0.000784976
0.000622146
0.000787506
6.58608
0.000785216
0.159152
0.0606984
0.00282464
0.00078532
0.170046
0.857416
0.000784114
0.267868
0.0980146
0.0027806
0.000785913
0.000784626
0.729645
4.59224
0.200248
0.0600111
0.000784963
0.00078548
0.00297811
0.000785763
3.11663
0.000784619
0.000784629
0.00207318
0.0207932
0.000785751
0.00078548
1.03855
0.00078548
0.000784509
0.00078548
0.00078548
1.65045
0.763796
2.29985
0.00078548
0.00078459
0.000784074
6.78475
0.000785653
0.634685
2.59147
0.00210752
0.000784919
0.000785182
0.000784716
0.00078548
3.46125
2.62003
0.00078548
0.000784239
0.000784717
0.000784635
0.645046
0.00078548
0.725738
0.00078548
0.760727
0.001875
3.14547
0.000785482
0.000784962
0.00078548
0.000790858
0.000790106
0.000793281
0.00078548
0.618968
0.00079078
1.58485
0.605349
1.82667
0.000783973
0.000784489
0.000785494
0.000785476
0.000797255
5.0837
0.000785479
0.000784675
0.000784507
0.80235
0.939479
3.08581
12.1894
6.54005
0.684563
0.00284522
31.0763
0.000773175
0.606484
0.000778818
0.000783657
0.00243448
0.189835
0.771113
0.00549306
0.000785671
0.682991
1.03963
0.000785417
0.000785434
0.000787707
0.000788123
0.000783415
0.000785687
0.00165846
0.362526
0.000785431
2.92854
1.44061
0.000785285
0.00078548
0.00078548
0.000785867
0.000785364
0.000784831
0.000785197
0.0022106
2.765
0.000788047
1.76451
0.493877
0.000788725
2.33847
0.73474
0.000784743
0.0016243
0.834014
0.00083891
0.0017666
0.00173407
8.38748
0.899253
0.00078878
11.961
0.000785465
0.000784362
0.0367847
0.000784757
0.000785425
0.000784591
0.000785482
1.67105
0.000785389
0.000785801
0.00078441
0.00078548
0.000784725
0.000785956
0.000784438
0.000788242
0.827222
0.000785411
1.02607
0.000783847
0.000832855
0.000790615
0.000784526
29.0814
0.000787758
0.000786628
0.538755
0.000493864
0.000783218
0.000784282
0.000245701
0.011895
0.32401
0.00078454
0.00078548
16.1853
0.000784155
0.000783967
0.000783903
0.16614
0.000784506
0.000784601
0.000784184
1.19595
0.00147629
0.000784151
0.00164477
0.000784517
0.842839
0.00219737
0.000784763
0.210939
0.000785488
0.000784276
0.000784319
0.000784794
0.000785324
0.000783782
0.00172479
0.000784421
0.000783983
0.000807976
0.836474
5.91963
0.000786259
0.000790464
0.00238084
0.000794526
0.142668
0.597353
0.0217744
0.000806237
0.000787657
0.00169436
0.000784493
0.000813971
0.000783902
0.990151
0.520073
0.00191473
0.664993
0.968806
0.000784427
0.000785494
1.06176
0.000785351
0.000784839
0.0572626
0.0018192
0.000785252
0.000784191
0.000532343
0.000785118
0.000785204
0.000784201
0.00078548
0.000784629
0.845416
0.000784344
0.000785079
0.000784317
0.000784681
0.00078548
0.190662
0.404016
0.00228509
0.000785551
0.00154428
0.00388124
0.000785713
0.000784259
0.000784638
3.41949
0.660648
17.9708
0.000784208
4.02761
0.000784165
0.000785376
0.291377
0.553345
0.000785367
0.000787922
0.00078548
0.000784925
0.000786061
0.000783899
0.00078457
0.000784955
1.25665
0.0552684
0.938311
0.000784695
0.000784856
5.88822
0.00078547
4.26339
0.000784113
0.00152847
0.000786
0.00078548
0.000784403
4.48427
0.137764
0.000775413
0.000774249
0.000785439
0.00078548
0.00025917
0.000784865
1.10232
0.00177257
4.4111
0.583033
0.00078548
5.17426
0.00078548
0.000784636
0.00078548
0.00078548
0.000785774
0.000785959
0.78828
0.00078414
0.00361516
0.00078548
0.000798515
0.000785554
16.8159
0.000785679
0.000785033
1.58225
0.774717
0.000783594
0.000784005
0.000784327
0.000784468
0.0552407
0.000785163
0.773102
0.000785874
0.000784704
0.0157629
4.48081
0.000785323
0.000771134
0.000785094
0.000827865
0.00078548
0.00078548
10.6536
0.000785652
0.00078548
0.00206199
0.00078548
0.000784954
0.000784396
0.00078549
0.000788388
0.00381762
0.00078507
0.00079181
6.51117
3.947
2.50409
0.000785485
0.00078496
30.0775
0.000784699
0.000799136
2.35169
0.000783875
0.355179
0.341186
1.95514
0.723434
0.000784703
0.000784439
0.000785116
0.00078548
0.000784774
0.642951
0.000785589
0.619334
0.000785299
0.954381
0.0152151
0.000785079
2.3731
0.000784444
0.0007849
0.000978668
27.3519
0.907587
0.00078548
0.651231
0.000785866
0.00078548
0.000784795
0.000786039
0.000784357
0.00078548
4.649
0.662754
0.000797164
0.000785149
0.00078948
0.000785477
10.5914
0.00078548
4.21709
0.000784598
0.00078548
0.000780948
0.00188293
0.000784657
8.50348
5.89974
0.00078502
0.000786164
0.000784319
1.8344
0.000785385
0.000784507
0.000786009
0.53296
0.000787485
0.00078548
0.000786845
0.317101
3.72757
0.380816
4.83781
2.06939
9.38263
0.000785217
0.000785013
0.000788115
6.99889
0.000784933
0.000785302
3.87178
0.00126713
0.23299
0.000785291
0.000784533
0.703592
0.646925
5.54495
0.000785477
0.000784728
1.46955
41.5504
0.0103931
4.94923
0.121027
0.000784849
0.000785465
6.87705
0.000784417
0.000784537
0.00189871
5.02417
0.00148244
2.15812
0.718725
4.55146
0.0007856
0.335214
4.23495
0.000786191
0.000786132
6.57216
0.000787699
0.000785525
0.000784632
0.000784994
0.000793245
0.00582557
0.000787081
4.07147
0.000785678
0.00078548
0.000785164
0.00078007
0.00134051
0.0701657
0.000785043
0.000783112
0.00078488
1.34329
4.80741
0.000783815
0.000785095
0.000735048
0.000784509
0.000850858
0.000784745
0.00078452
4.51704
0.000789398
2.81375
0.000785479
3.68544
0.000784028
2.34299
2.38689
4.28077
0.000784826
0.000795807
3.61333
0.000783813
0.000784412
0.000783945
0.000783991
0.000119971
0.0286844
3.09975
3.7451
3.39725
8.77674
0.00181316
5.47123
0.00187267
0.00198494
0.000785061
0.000784225
0.00244464
0.000784757
0.00160901
0.000785021
0.000788865
0.00078468
0.00200938
0.000784057
0.000797002
0.00177026
0.000784468
0.000785465
0.000784882
0.000784854
0.000786176
0.000785476
0.500673
0.000784305
0.00078535
3.85089
0.000784624
6.25624
6.55522
0.676953
7.07226
0.664538
7.21906
0.735994
0.00078548
0.00078548
0.000784494
0.586265
0.00078548
1.46374
0.000785672
0.00078602
0.000784547
0.00078423
0.000783377
0.000785178
0.000783545
0.000767548
0.00078457
0.776181
0.000783705
0.000784122
10.9058
0.000791243
0.000785843
1.48856
0.560634
0.000784812
0.000785054
0.000785197
0.970809
1.1748
2.86389
10.6106
3.5315
0.000784951
0.000783364
0.00078453
0.000786416
0.000784796
0.000784934
0.001783
0.000784935
0.000784156
0.000784593
0.00078792
0.000784971
0.000785183
0.00078414
0.000784488
2.03466
1.82003
4.62805
0.0356678
0.233426
0.000783906
0.000784993
4.41384
0.000740298
0.000784553
4.86212
0.00172324
0.000785262
0.000784016
0.00323703
0.847286
0.0913007
0.000784629
0.00078548
0.00196619
3.30217
0.00078548
0.000785191
0.00078548
0.0319556
12.4577
0.000788566
0.00196959
0.000784397
0.00078549
0.000784156
0.000784638
0.000784413
0.000784255
0.000785034
0.000785691
0.000784398
0.000785558
0.000786002
0.000786336
0.000786141
0.179972
0.000784524
0.0324447
3.18328
4.64801
4.08107
0.67259
0.732345
1.13617
1.38634
0.00078548
0.000786298
0.00078996
0.0903366
0.336013
0.574619
0.0497511
3.11675
3.5472
4.37739
5.92121
0.00166785
0.000584699
0.000789468
3.2828
0.154601
5.8403
0.000785987
0.000784757
0.000784627
0.000785427
0.612912
0.480623
0.0119076
8.28002
0.000788364
0.00078584
0.000785669
0.000785395
4.02965
0.00123504
0.000786114
0.000785947
0.973973
0.000337502
0.000784677
0.000784717
0.000784909
0.000784601
0.000785446
0.00078504
0.677764
0.000782573
0.000785421
0.000784351
7.11204
0.000789343
0.000782376
0.00080066
0.000784242
1.78554
0.000784688
0.00078932
0.000785757
0.0541125
0.343223
0.828023
0.000784923
2.54253
0.000785682
0.000785101
4.7937
1.15773
1.28218
2.01698
0.878596
0.00078548
7.73977
0.000784449
0.00078548
0.00078548
0.000787899
0.00078548
0.14475
0.00078458
0.333567
3.50294
0.000783918
0.000784604
0.00221837
0.000787905
0.789189
0.000785472
0.0058421
0.000785472
0.000788042
5.2795
0.000785415
0.00078337
6.28381
0.000784981
0.000785754
0.000785001
10.4516
2.30676
0.000785293
4.84616
0.000784924
0.000784692
0.000785737
0.000785495
0.000784515
0.000786149
0.000784317
0.00078548
0.000785113
0.000787971
0.0190628
0.000784584
0.000298498
0.000786061
0.00390699
0.00196558
0.153401
5.7997
0.00078548
0.00078548
0.000784383
3.59932
16.5964
0.00078548
0.000787683
13.6395
8.27415
0.180601
2.27474
2.87504
0.000786103
0.573415
0.603078
0.000788493
0.000784446
0.000784648
0.000791089
0.799376
0.000762838
11.5078
0.000785473
0.00078401
0.582887
47.264
0.000786355
10.0562
10.6495
0.000785821
0.00078638
0.0020429
0.00078591
4.30032
0.00191279
0.00211262
0.00219314
0.000784007
0.000784446
0.862762
0.0055815
0.000787673
0.000784131
0.000785834
0.000784509
0.00078527
0.000785257
0.632838
0.485207
0.257918
0.000785448
0.000784304
0.000785479
0.00078482
0.000787599
0.000784197
0.000789451
0.000794234
0.527295
0.000784129
0.502082
0.634673
0.00078467
0.000785587
0.000784323
2.3998
0.000785287
0.000790452
2.0079
0.778555
0.00078169
0.000785476
0.000784013
0.000784167
0.000788245
3.72032
0.000792348
0.000784471
0.192874
5.07651
0.000785103
2.70322
0.000777901
9.37959e-05
0.00088003
0.000785734
1.23678
0.000785542
0.000784297
0.000785169
0.000788226
0.000790039
0.000788771
0.00258863
0.000789466
0.00120263
0.000787504
0.0230932
0.000790407
0.000785752
0.000787347
0.000788421
0.00233277
0.562734
2.87449
0.000790675
0.0008543
0.00176744
0.000784317
0.00222059
0.843309
7.52699
0.00207547
0.259281
0.000784485
0.00258807
3.36088
0.000784605
1.16318
1.17338
2.28757
0.00199488
0.00175629
0.422741
0.000785779
0.000789299
0.00702757
14.2938
0.000806448
0.000785084
0.0626949
0.000787741
0.000784456
0.0020991
0.668868
9.68486
0.000785118
0.422743
0.000784804
0.422051
0.00078255
0.00078496
1.00311
0.000785407
0.00229763
8.16042
0.0148166
0.00215905
4.33515
0.000789845
0.0847171
0.000785093
0.767278
0.715535
0.00147694
0.000790019
0.00086902
1.76514
4.43188
3.46565
0.000790087
0.000788108
4.56129
0.000783082
0.000784901
5.39851
4.23604
0.00201859
0.000784832
0.000784178
0.000785156
0.758139
0.000784726
0.000784995
0.00078536
0.12337
0.000787576
0.00078548
0.000368897
0.0024782
0.000784886
0.000785097
6.05514
4.53621
0.000782961
0.000785524
0.852484
0.168026
0.00078583
0.351335
0.0026496
0.00227009
0.431626
0.000785428
0.138342
0.00168324
0.000784795
0.000787864
2.56591
0.0332487
1.70724
0.000783825
13.2025
0.336556
0.0124157
0.481757
0.010828
2.78391
2.42662
6.28039
0.48161
4.46207
0.677952
0.000783896
0.000793513
0.705115
0.000784387
0.000783249
0.646726
0.23267
0.000784796
0.000786096
0.000783723
0.000783708
0.00186671
0.640727
0.000783982
0.264248
0.000784186
0.000785554
0.471473
0.803969
2.63615
0.000789534
0.98068
16.588
2.55303
8.91895
0.000785494
0.000784122
0.000786639
0.000784496
0.00174023
0.00210306
0.000784393
0.000784313
4.78175
0.720913
0.00270621
10.6736
0.641987
9.81304
0.00177882
1.40009
0.000791238
3.73619
0.00180872
0.64744
0.0007906
0.00078548
4.8187
0.00078548
0.000785485
0.000784778
0.00078548
0.00078548
0.00149318
0.632968
0.0132429
0.00078548
12.8686
8.93747
0.00147831
0.000785348
0.000784902
0.000785279
0.000785373
0.098351
0.000784678
0.882339
0.879669
0.000785427
0.00078548
7.85082
17.792
1.23868
0.793322
0.00079187
0.00228836
0.73977
0.00078548
0.00078548
0.000783277
13.266
0.000785328
0.000785458
0.000785471
0.000785063
0.00161963
0.000787426
0.000788462
11.8544
0.00112294
0.00290083
0.000780654
0.675173
0.756623
3.87211
0.000105778
0.000784738
1.22123
0.000784744
0.000785491
0.000785526
0.88096
0.000784583
0.00168886
0.78512
0.00078548
0.000785431
0.608186
0.000785492
0.000785271
2.01378
0.796492
0.000790496
0.8053
0.000784616
0.000785478
0.000785476
0.00078548
0.000784974
1.17791
0.000783887
1.10536
0.00173407
0.00078548
0.00078548
0.416976
0.000788928
0.578173
0.00178941
0.00078548
0.000785432
0.000785492
0.000784318
0.00145444
0.66846
0.000785393
0.00165711
0.684434
0.000785271
0.00078548
0.00153307
0.000785364
0.000785487
0.00155252
0.00150458
0.000785477
0.00078549
3.5659
0.613543
0.00163233
0.626661
0.762496
0.000799852
0.81023
0.000784967
0.000785439
0.000783806
0.000784404
0.00078548
0.00079114
0.993213
0.000785493
0.00162282
3.76234
0.0016647
0.000786199
0.000784906
0.583973
0.101787
0.00164686
0.828733
0.000785438
0.139357
0.000784455
0.000784889
0.00078548
0.000785408
0.566417
0.000785494
0.761741
0.000785388
0.00078548
0.00078548
0.000784631
0.00163594
0.0014496
0.628478
1.00366
0.00078548
0.00078548
0.88569
2.00946
0.00078548
0.00078488
1.30314
1.08157
0.000356171
0.790913
0.000574778
0.000785499
0.00078548
0.00078548
0.000785299
0.00148267
0.838883
0.904027
0.000785483
0.000784814
0.00156927
0.00078954
0.625492
0.000784874
0.00078523
0.000785495
0.00165939
0.00151798
0.00174848
0.000785465
0.00147221
0.737545
0.000784253
0.000785103
0.000765453
0.731143
0.00078618
0.000785468
0.000784894
0.000783985
0.00078548
0.725295
0.00183747
0.000785491
0.00078548
0.930968
0.00078469
0.00078548
0.515339
0.521118
0.0017216
0.000785465
0.00078548
0.00170008
0.00078548
0.00078548
0.000785239
0.000785463
0.00078548
0.00078548
0.00078548
0.00078548
3.69818
0.00078548
0.00078548
0.000921143
5.53394
0.831089
11.2213
3.3563
0.000784038
0.517811
4.21921
2.99869
0.0015461
4.85739
0.000786451
0.6678
3.74512
0.12917
4.71035
0.00187443
4.24768
0.119801
0.39954
4.11989
0.000784759
0.00078548
0.0216537
0.000785005
10.0509
7.19563
0.369989
1.01395
4.08569
7.60746
16.1939
0.490169
5.43065
0.000783218
0.000785463
0.00078406
3.12481
4.72438
0.000784538
0.0017704
0.000784577
0.000785494
0.000783062
0.718117
0.000789264
0.00163808
0.000784581
0.000783409
0.000791495
0.000784882