/*--------------------------------*- C++ -*----------------------------------*\
| =========                 |                                                 |
| \\      /  F ield         | OpenFOAM: The Open Source CFD Toolbox           |
|  \\    /   O peration     | Version:  2312                                  |
|   \\  /    A nd           | Website:  www.openfoam.com                      |
|    \\/     M anipulation  |                                                 |
\*---------------------------------------------------------------------------*/
FoamFile
{
    version     2.0;
    format      ascii;
    arch        "LSB;label=32;scalar=64";
    class       volScalarField;
    location    "0.4";
    object      epsilon;
}
// * * * * * * * * * * * * * * * * * * * * * * * * * * * * * * * * * * * * * //

dimensions      [0 2 -3 0 0 0 0];

internalField   nonuniform List<scalar> 
32842
(
0.0440377
0.0441226
0.0440302
0.0440298
0.0564753
0.044029
7525.79
4874.17
0.0440298
0.0440224
39.902
1002.83
0.0440291
0.0440298
0.0441283
0.0440316
0.043989
0.0440281
0.044011
0.0561107
0.0578124
0.0582957
0.0557199
0.0440302
0.0555943
0.0440298
0.0440293
0.0521963
2.27063
0.0439744
658.196
0.161803
225.877
0.0439849
526.014
11796
0.0588159
0.0440998
0.0441001
0.0440313
0.0440298
0.0575867
0.0440298
0.0440298
0.202169
0.0439571
543.946
0.0440122
0.0571238
0.356891
726.566
0.0440298
0.133596
4.1398
0.0440301
0.164695
0.0440298
20.9756
0.0440299
0.0440298
3018.69
0.137947
0.124696
0.0576197
0.0440567
187.48
0.0440299
0.118397
0.176765
0.0442848
0.0515385
21.5353
0.155799
0.0440298
0.0440298
0.043888
0.0696487
0.0440298
0.157106
459.25
0.0563106
0.0440298
0.0440298
0.143105
0.106001
0.0440298
0.0440298
0.140045
0.261544
0.0440223
0.0564886
0.0570796
114.781
0.0440573
0.0440297
0.0439844
0.160961
0.0440865
0.111317
0.0440298
0.0440298
0.0629106
0.0443887
172.736
0.157377
0.170153
39.9421
0.0440189
0.14271
0.0440955
0.0440246
0.0440154
187.041
0.044024
0.0444081
0.057293
0.145995
106.822
0.0443508
0.044016
0.044006
0.0440224
0.196764
0.0440301
0.0426841
0.159103
0.187538
0.0440215
183.215
0.04403
0.0440298
0.0449984
0.0688126
0.148807
0.0675502
0.0440435
0.030468
8.89291
0.0439931
0.0439815
0.147206
0.0439877
0.149263
0.803142
0.0440214
0.0439849
1533.14
0.0439891
0.0440298
0.0440005
0.0459865
0.365985
0.0542851
483.134
0.0440557
0.0440298
0.0440298
0.0439969
0.0440108
0.0440242
0.044044
0.0440298
0.0554266
0.0440298
0.0440443
0.0439986
0.0440298
0.0440148
0.0440611
178.186
1.79146
0.0636821
49.6164
0.0440298
0.0580089
108.93
0.0439835
0.044389
0.0440298
0.0440139
0.0525819
0.0439777
0.0440092
0.0440296
0.145257
0.0440032
0.152772
0.043978
0.044039
0.0439858
0.0439735
0.217823
0.179434
0.0440298
0.173425
0.0440562
0.0439356
0.0440612
0.160975
0.0439981
0.0439645
0.044218
0.46689
242.554
53.6114
0.0913304
0.0440574
0.0577959
0.169047
0.0440594
0.0440359
0.0447848
73.6958
60.5905
0.0439826
0.0440298
0.0440644
0.0440982
0.044044
0.0440245
0.0912966
0.0440297
0.044025
0.0440467
0.0626111
0.200048
0.04403
0.167942
0.0440322
362.138
0.0440189
0.04402
0.0439641
0.0440297
186.54
0.0562223
0.056641
0.0732424
0.0440662
0.139189
0.685685
0.0440459
0.0440582
294.377
0.0440017
0.0440255
0.130966
0.0440295
0.0440295
0.0440247
0.0440298
0.0440293
0.0440287
0.162517
0.0440613
0.044029
0.0440185
56.35
0.0439958
0.0440127
0.044028
0.0440298
0.0440298
0.0440298
0.207534
0.0440293
0.0440208
0.0439917
0.0440611
0.0440301
0.0440245
0.163806
0.0440274
0.201042
0.0440289
30.6544
0.0440302
0.0619398
0.0440297
0.0440619
0.0440243
110.571
273.595
0.0440298
0.0440175
0.155045
72.5252
0.0440298
0.0577075
0.0440298
2556.92
0.04403
0.176933
139.389
0.230374
0.0433587
0.177756
0.0440168
0.0439817
0.0552294
1001.95
0.0440249
0.0439827
0.0440163
0.0440298
0.0440298
0.0440298
0.0440298
0.0439576
0.136743
0.0440253
0.0440298
0.140769
0.0440092
0.0440298
0.0440015
0.0440424
380.226
0.0439996
0.0439636
0.0440369
0.254338
0.0440004
0.048587
0.0440301
0.0439998
0.0440291
0.0440301
0.0440571
0.0440298
0.0440561
0.157429
0.0440298
0.0440298
0.0439883
0.0440298
0.085764
0.176933
0.0440298
0.0439981
0.044015
0.0440283
0.0410564
0.0440298
0.137101
0.0440298
0.0440298
0.165904
0.119917
0.149171
0.0443081
81.4138
0.0439902
0.161453
0.0440245
0.0439177
0.0589437
0.0440402
0.044011
0.044006
0.0440298
0.0440298
0.044028
0.930909
0.0440285
0.0440526
0.0440298
0.0440298
0.0490759
0.0548541
0.0440298
8792.74
0.0440183
0.0649091
0.0440298
0.142621
0.0613478
0.0440298
0.0341473
0.0555193
0.0440042
0.135016
0.160702
0.0440046
0.0440679
0.0440301
0.0440298
0.0440296
0.0440296
0.0439999
0.0440038
0.0440275
0.0439916
0.0440297
0.0440005
0.0440298
0.0440273
0.0440303
0.044022
0.0440769
458.447
0.0440298
0.0440015
0.0441531
144.368
0.0440316
0.0440244
0.0648958
0.0440297
0.0584989
0.183112
0.0440199
0.0440298
0.044009
0.0440058
0.0440376
0.0440405
0.044036
0.0439929
4971.12
0.0440047
0.154988
0.0440298
0.0585612
2703.06
0.0440298
0.0439963
0.0440298
0.0424349
0.04403
0.0439345
0.0440298
0.0440297
0.155794
0.0561714
0.081239
0.0440309
2148.29
126.297
0.147107
0.05768
2.7073
0.058264
0.144884
0.0440561
0.0440125
0.0499089
0.0440301
0.0544545
1.13025
0.0440302
0.0440032
0.0440631
123.71
0.0538003
0.0440061
0.044003
0.0568114
0.0440252
0.0442084
0.0440628
0.0584485
0.0440298
0.0440299
0.0440298
0.0440545
0.0439955
0.14338
0.0439895
0.0441484
0.0440298
0.0586203
0.0565274
0.0440298
0.0440594
0.142906
0.152506
0.0440298
0.04403
0.0440298
0.0440298
0.0563504
0.0440123
1.15939
0.14316
0.0439878
0.0440301
0.112929
0.0442931
0.0440298
0.0596098
0.0443365
0.0502304
0.0447299
0.146739
0.0579209
0.182714
0.141442
0.0438063
0.0439619
0.058745
72.7677
0.0440527
0.151066
0.060297
0.111712
0.0538932
0.0440255
60.5118
0.0596966
0.0439859
0.156082
0.0439602
0.152795
0.0439912
0.04403
0.0615845
0.0652455
72.9154
10879.6
24.9081
56.1354
45.1677
25.6886
118.892
0.148507
0.0440316
0.0439839
0.0440687
0.143906
7.63759
0.124996
0.608684
0.0439985
0.0439843
0.0540164
1.67445
0.0440303
3453.12
26.9962
0.044171
393.986
0.035813
14.5133
0.0440387
0.0440298
0.0440095
0.149122
214.132
0.0440298
0.0587755
0.044029
0.0429602
0.176909
0.0439988
0.0440265
0.0439806
0.0440297
0.494533
0.237895
0.0440298
0.0440298
0.0440129
0.156256
0.228756
0.115959
0.0440246
0.0439969
0.0440298
270.686
0.142345
0.185088
145.601
0.179368
0.0440297
13.5383
0.179835
0.0440397
525.376
0.0440298
0.0564056
0.0440298
0.0458788
0.056641
0.0555398
0.0440298
0.0439829
0.0439947
0.043998
0.142639
0.0581619
0.04403
0.0440308
276.9
0.0440297
0.0769973
230.236
0.122662
0.0440723
0.0440126
165.162
231.826
746.528
0.0440151
32.3003
0.100531
0.361838
0.0445648
0.264769
0.04403
0.0440242
0.0440302
0.0440298
0.0440298
0.354827
0.0567791
0.044004
0.0440298
0.0439873
0.0440298
0.0439788
0.0440015
0.0440142
0.067913
0.116323
0.044007
0.0440298
0.194336
0.114901
18.4881
0.0439703
0.134967
0.0440245
0.0440298
0.0440925
213.435
0.157792
0.0440298
0.0579635
0.0440298
2.52081
0.0440298
0.0440298
0.04403
0.0440253
0.105682
0.0440298
0.0440298
49.3655
3.4087
0.0437794
0.0439924
0.044023
0.178612
0.104314
0.0440298
0.153311
0.056223
0.0440298
0.0440297
519.374
320.611
0.0440298
0.112551
591.452
0.0440343
0.085767
0.043987
0.0440298
0.0594433
0.0606098
0.0458957
0.0440647
645.976
0.0440298
80.7799
0.0440278
0.0440298
238.25
390.236
4.6018
0.552457
0.0440298
0.0440046
0.0547355
0.0558142
367.687
616.922
347.746
423.878
0.0441399
0.0445617
281.201
0.0440267
3.46617
0.0440252
0.0441374
0.131992
443.488
0.0440526
0.0440158
0.044028
0.0440145
0.0439968
0.0440298
0.044017
0.0440298
0.0440298
0.137916
0.0440298
0.0440614
0.0440298
0.0892871
0.0440127
0.0440463
0.0440525
0.169247
0.0440297
0.0439873
0.0437295
0.0439726
0.0440094
0.04403
0.0459159
0.0440644
0.0440057
0.0439764
0.043973
0.022568
0.0441088
0.0592579
0.0494164
0.0584067
0.0440298
0.0605679
0.0670764
0.181023
0.043982
0.0440427
0.0584041
0.357576
0.0440298
0.193478
0.057401
0.0440298
0.0440298
0.0452932
0.0439976
0.0439868
0.131225
0.0440298
0.043985
0.0440275
0.05867
0.152963
0.0439889
0.0595403
0.0440296
0.0545833
315.018
264.167
0.0563291
0.0440349
0.121181
0.0439783
0.0440298
0.0440089
0.0439954
0.0441996
0.0439408
0.117888
0.0440298
0.0446543
0.13341
0.0603261
0.0439837
0.044192
0.0440298
0.118856
0.0664939
0.148251
0.0439852
0.182228
0.196
0.0574522
0.04403
0.0539735
0.0440059
0.0586077
0.044
0.0439951
0.0573799
194.92
0.156918
0.0439963
240.083
0.0440638
0.184806
0.0440214
0.044027
0.0439835
0.0440298
0.0439648
0.0441141
0.0440029
0.0439997
0.0440297
0.0440059
0.0440031
0.0440514
0.164358
0.0442712
0.141064
0.0440454
0.0440139
0.0575475
6.11855
0.0440339
0.0440383
0.0575709
0.0440105
0.044299
0.0440174
0.0624257
0.126131
0.0440298
0.0440292
0.044101
0.0440557
0.0440294
0.0441122
0.0439917
0.0440298
7286
0.0440033
11.6179
0.0439964
0.0439956
0.044062
0.0441061
0.0563016
0.0440399
0.0440298
0.0440298
0.0440015
0.482889
0.0440298
0.0441068
0.150115
0.0440732
0.159194
0.044006
214.391
0.0439958
0.0440281
0.120979
124.185
0.0439803
0.0439832
87.3165
0.060729
0.0439982
0.0440081
0.0440298
0.0439657
0.043979
0.15919
8.27845
0.152201
0.0440298
0.144853
0.0439926
0.0440702
0.0440882
0.0597673
0.049616
0.0439995
0.0440233
0.0440293
0.0440176
0.0442631
0.0440298
0.0440284
0.0440327
0.0439988
0.150943
0.0601729
0.0440298
0.2516
0.517096
0.0439497
0.0348037
0.0275577
0.0440298
0.0440042
0.0440287
0.196114
0.0440298
0.0440298
0.162868
0.0587027
0.0439995
0.0440298
0.0440298
0.0440008
0.0484654
0.433513
0.0440229
0.0439982
0.187806
0.0440295
0.0440397
21.1353
0.0440186
0.0440296
0.0440301
0.0440142
0.162569
0.0440168
0.0440061
0.044029
0.044023
0.0609634
0.0440298
0.188004
0.056465
200.724
0.0440298
0.0440298
0.0440241
0.0440349
0.0440285
0.0440298
0.040598
148.123
0.0535587
0.13574
0.0440298
0.0549573
0.0440298
0.0440298
0.0440645
0.0440298
0.0439833
0.0440295
0.0440298
0.0440131
0.0440161
0.044029
636.14
0.0440268
0.118161
0.0440336
0.139213
0.144089
0.0440298
0.0554332
0.140062
396.821
292.587
0.241418
0.0440356
0.0440301
0.0440298
0.0440301
0.459697
0.0440301
0.325028
0.375986
0.273092
0.304799
0.0496722
57.7404
0.0440298
3.85009
9169.34
0.0440035
271.401
0.0400748
0.0439848
0.0440298
0.0439818
1.88394
0.0440049
0.150494
0.0568903
302.808
0.205976
0.134735
0.0645479
0.0440298
0.0440345
0.0439736
0.0440592
0.044221
0.044028
0.0439944
0.0440224
5.44769
0.0602312
0.0439762
144.043
0.0439977
0.0440041
0.0440824
0.044028
554.313
0.6719
0.0439835
0.0440489
0.0440082
0.152086
0.24509
0.043977
1.60491
0.139436
59.6004
0.0440217
0.044028
425.623
0.137159
0.0439952
0.0440618
0.0440145
0.0440546
35.6415
0.0440986
0.193719
0.0440471
0.0440298
0.0439969
0.0439918
0.0471969
1.67674
0.0439907
0.0440508
496.017
0.266067
0.167204
0.0440496
29.9386
448.596
0.0440119
0.04403
0.0440189
0.119524
30.0325
0.0440262
0.0553825
3.58381
0.0439957
0.0516667
3.01555
0.0439855
0.0439893
0.0440677
0.0439815
206.861
0.0440521
0.04404
0.0855122
4.01772
0.0510703
0.0498988
3.93108
0.0440287
232.41
0.203471
0.0440403
0.124488
0.268821
20.6078
1.59862
17.0893
12.4476
0.0440449
2491.76
0.16675
0.0361409
0.0440245
0.0439913
0.0440149
0.0440135
0.0440264
0.0440353
0.0439777
157.893
0.0440295
0.0440251
0.150019
0.0440298
0.044082
506.837
0.41375
0.0651121
0.0494201
0.044032
1.22461
195.681
0.163144
0.0440381
0.044029
0.0441196
0.930796
137.952
0.0623248
0.0444657
571.642
0.0440582
4.11563
0.0448174
0.0439817
0.841169
0.0602473
0.0440163
0.409257
0.04401
0.0440016
0.734203
343.708
69.1262
0.0439936
0.0440244
0.0440298
0.0439979
0.0444892
0.0453057
3.23124
0.0440298
0.0440298
49.632
0.0440003
0.0440295
1.2078
0.0440296
22.0365
34.6711
0.0440297
0.0440203
32.2606
13.207
23.0984
17.7168
0.0440751
163.983
41.1889
0.0653552
115.222
0.0187541
0.129176
0.043985
0.0439865
0.0439367
2.72723
0.0667663
0.0440301
0.906688
0.172127
7.68492
1.09752
0.0440298
0.652725
2.81208
0.449401
0.0440298
0.0439964
12.4689
0.044051
0.044132
0.162816
0.0448118
164.326
4.35416
0.0754113
0.0489005
0.0440317
0.0439968
11.5117
0.37179
0.0439679
0.0442581
0.0440298
0.422669
0.0440453
0.150551
421.53
0.0442743
0.381466
98.3847
0.250348
21.9753
49.9209
1008.43
0.0445179
0.142758
34.9635
0.720445
0.0534187
0.0440297
24.9789
0.0439774
0.0440126
0.0686031
0.0862003
0.161313
1.03816
0.0609324
0.131169
5504.67
0.0440136
45.4349
0.0642469
0.130424
59.4032
0.0439593
0.0856679
0.177455
70.0998
0.0668749
0.0440299
0.136219
0.0440298
0.0568053
8625.86
0.0556855
0.0440886
0.166333
0.680857
0.0439681
136.56
0.0440298
0.0439933
0.0439964
0.0439989
36.0169
0.0550331
0.0440298
0.369528
0.217834
0.0439783
0.0441877
3.94226
0.0439995
0.0440298
0.0441162
26.7247
10.553
0.0440277
108.351
0.0440298
124.169
0.150826
0.0452415
0.160913
20.0995
0.232656
0.084936
0.0441175
0.805614
20.3225
333.164
220.474
211.497
0.0578194
15.2107
0.0439998
154.986
0.044071
0.16694
0.0440525
5.36565
0.0439914
0.0573647
0.050843
244.789
20.6922
0.0572397
0.0440601
183.158
0.175893
0.0440062
0.0440298
79.2745
0.376861
0.0439906
0.129095
0.0440127
1.80755
2.6238
0.12852
0.0440752
0.0440346
6.84599
634.298
0.0570695
0.0441146
0.0612299
0.0439968
0.044042
21.6968
0.0440298
0.151372
0.177366
0.0441011
4.06297
0.0440167
451.238
443.52
0.0440298
0.0695545
41.2355
0.0440299
0.0440298
0.0440576
0.314401
0.0439862
0.0443333
0.0440971
0.0613285
0.0443004
0.0447477
0.0440893
0.0440274
0.0440325
0.044084
0.0439857
0.0440588
0.0440439
0.0440319
0.0440185
25.4652
0.0442865
0.0440342
376.999
0.025676
0.0439897
0.0440222
0.0442114
0.0440298
0.0599563
9.17465
0.0439618
0.0441173
0.0444391
0.0464284
0.398684
320.269
0.0658991
0.187235
82.4262
0.0440214
0.0439911
149.968
98.7741
0.0569556
0.122999
0.0441012
0.0439691
450.598
0.0571567
148.917
0.0599887
0.0620611
0.0534708
0.0439656
136.487
0.0440628
0.0440302
0.0621532
107.333
718.912
0.204193
89.3282
0.055751
0.0547991
0.101042
0.043985
210.004
36.6043
0.0553007
270.514
0.0439938
484.549
0.0440028
0.0488327
0.0441288
7.30465
0.0440298
71.6138
0.0440761
0.0440558
0.0623112
5.28362
0.778049
0.0451976
0.0439901
0.0440401
19.403
0.044054
0.0440298
843.824
0.0440298
18.5649
0.0439487
0.0440113
0.0442863
0.0439923
0.0439832
0.0440298
19.3954
0.0440123
2.27206
0.34466
0.0441055
0.0440508
0.0439778
0.0440136
0.0440203
0.0440105
67.8919
0.0440047
0.0439732
0.0440298
0.0622099
0.197855
0.0439671
0.044152
0.0440173
216.847
0.0439266
0.0439871
0.0440049
0.0439843
0.0440591
0.137278
0.0439823
0.0440105
0.0439704
316.402
0.044163
0.0439966
0.0440604
0.138897
0.0443958
0.0445071
0.0396243
0.0440025
0.0444443
0.0440358
3.91766
0.0440185
0.0439967
0.0416015
1.20215
23.9478
0.0440163
121.188
116.662
107.461
0.0440012
143.248
0.0586215
0.0549739
0.0440409
94.5526
63.9759
0.0439475
0.0440299
0.0440873
0.0439884
46.9157
35.9763
0.044006
0.0440298
0.0429413
0.0440241
0.044372
707.663
0.0440299
335.064
135.276
0.0440299
0.0458793
0.262536
0.0453578
0.0367309
0.0440205
0.0440602
0.168644
0.0440241
204.111
0.0439595
0.0449717
0.0440276
0.128178
0.0617144
0.0439848
0.0439552
0.0440285
0.0440134
0.0443127
0.0440961
28.088
0.0440233
0.0286358
0.0590335
0.0703753
0.0440332
0.022697
0.129966
0.0439845
65.8387
1.93857
0.0665645
0.0440814
0.0440003
0.145945
5.15686
0.441131
0.256291
0.0440221
0.0440298
0.0708884
0.044051
1.18257
0.0440008
0.0440095
0.0589846
0.164232
0.0440538
0.0440298
170.158
0.0440298
0.0440006
0.0440298
0.0440298
24.8343
0.129421
57.8883
0.0440298
0.0440086
0.0439912
218.676
0.0460898
500.065
342.263
0.0612002
0.0440177
0.0440286
0.0440102
0.0440298
250.987
328.012
0.0440298
0.0439963
0.04401
0.0440007
0.162921
0.0440298
0.147687
0.0440298
0.141848
0.0590662
3.32082
0.0440298
0.0440102
0.0440298
0.0442007
0.0441618
0.04423
0.0440298
0.167277
0.0441892
0.82463
7.86425
0.822527
0.0439777
0.0440023
0.0440301
0.0440296
0.0445375
152.511
0.0440297
0.0440146
0.0439998
0.13649
1.13493
171.06
158.051
104.607
0.151973
0.0701017
1931.67
0.0436691
0.172727
0.0438852
0.0439618
0.0654633
0.392006
425.559
0.0940033
0.0440754
0.153663
449.368
0.0440274
0.044028
0.0443675
0.0441163
0.0439659
0.0440504
0.0566966
776.457
0.0440271
47.1564
486.08
0.0440224
0.0440298
0.0440298
0.0440565
0.0440254
0.0440052
0.0440057
0.0608518
6.59593
0.0442484
0.337561
134.307
0.0444313
1.33877
0.146685
0.0440455
0.0568975
0.380085
0.0459602
0.057467
0.058408
3.70614
0.117374
0.044268
63.7337
0.0440292
0.0439917
0.0544381
0.0440189
0.0440417
0.0440096
0.0440298
61.8388
0.0440158
0.0440712
0.0440608
0.0440298
0.0440148
0.0440676
0.0440109
0.0442468
0.129861
0.0440271
0.108241
0.0439814
0.0452354
0.0441591
0.043994
15.3106
0.0441961
0.0441165
0.185725
0.0220738
0.0439597
0.0439715
0.0347191
0.135755
106.641
0.0463108
0.0440298
72.3594
0.0439947
0.0439834
0.0439832
0.255079
0.0440063
0.044006
0.0439873
19.3273
0.0547657
0.0439941
0.0572166
0.044006
0.128047
0.0618989
0.0440185
0.128808
0.04403
0.0439879
0.0440024
0.0440059
0.0440238
0.0439788
0.0581815
0.0439902
0.0439861
0.0453134
0.125607
13.776
0.0440438
0.0446707
0.0611766
0.0452942
2.39605
0.17402
0.719974
0.0459445
0.044332
0.0581031
0.0439984
0.0446659
0.0439711
46.7187
0.189209
0.0588127
0.158624
0.109506
0.0440048
0.0440301
0.101026
0.0440249
0.0440211
0.180688
0.0571409
0.0440352
0.0439852
0.0411232
0.0440253
0.044034
0.0439938
0.0440298
0.0440126
0.131641
0.0439921
0.0440186
0.0440002
0.0440097
0.0440298
0.0588541
0.417576
0.0612492
0.0440431
0.0561209
0.0815127
0.0440486
0.0439857
0.0440044
45.7767
0.160347
0.539694
0.0439955
196.547
0.0439846
0.0440359
0.327374
0.188129
0.0440431
0.0442204
0.0440298
0.0440227
0.0440638
0.0439858
0.044009
0.0440246
0.290338
3.43902
0.112871
0.0440101
0.0440158
244.216
0.0440406
63.0372
0.0439795
0.0555672
0.0440619
0.0440298
0.0439916
91.5735
0.471771
0.0438476
0.0437682
0.0440282
0.0440298
0.0244956
0.0440159
0.0986907
0.0571136
46.9616
0.176376
0.0440298
74.3983
0.0440298
0.0440058
0.0440298
0.0440298
0.0440529
0.0440607
0.133803
0.0439843
0.0735658
0.0440298
0.0444106
0.0440525
1104.23
0.0440493
0.0440274
613.97
0.1366
0.0439598
0.0439855
0.043991
0.0439984
0.595472
0.0440247
0.136679
0.0440835
0.0440088
0.220768
29.7154
0.0440445
0.0428606
0.0440245
0.0460164
0.0440298
0.0440298
185.792
0.0440545
0.0440298
0.0639586
0.0440298
0.0440213
0.044005
0.04403
0.0442297
0.0800378
0.0440179
0.0446365
0.41553
50.5849
1768.7
0.0440299
0.0440129
10.5999
0.044002
0.0444028
588.49
0.043985
1672.59
1489.05
586.287
0.143031
0.044014
0.0440009
0.0440266
0.0440298
0.0440149
0.158839
0.0440456
0.168477
0.0440333
65.2348
0.143685
0.0440255
484.015
0.0440057
0.0440211
0.0490749
6.76095
0.117767
0.0440298
19.4484
0.0440638
0.0440298
0.0440061
0.0440822
0.0440017
0.0440298
289.647
0.154409
0.0447965
0.0440305
0.0446857
0.0440297
135.418
0.0440298
31.6871
0.0439993
0.0440298
0.0439298
0.0589468
0.0440085
39.6323
307.228
0.0440303
0.0440939
0.0439864
27.2084
0.0440552
0.0439932
0.0440603
104.097
0.0440717
0.0440298
0.0440544
0.096476
118.148
332.181
314.144
2.09467
133.204
0.044031
0.0440329
0.0442408
11.4776
0.0440196
0.0440336
16.5524
0.051137
0.508717
0.0440354
0.0440104
0.152244
0.166486
296.695
0.0440297
0.0440157
126.408
1.60642
0.127399
47.2802
0.583086
0.0440061
0.0440805
51.1345
0.0439964
0.0439949
0.0584932
64.5905
0.0532444
270.9
0.145297
98.7678
0.0440447
0.407305
32.9647
0.0440696
0.0440673
82.6236
0.0442014
0.0440443
0.0439991
0.0440242
0.0450545
0.110277
0.0444461
3950.5
0.0440489
0.0440298
0.0440315
0.0438462
0.053233
0.358994
0.0440249
0.0439805
0.044011
7.3052
211.373
0.0439807
0.0440422
0.0427355
0.0440068
0.0457829
0.0440021
0.0439977
257.406
0.0445229
332.081
0.0440297
14.8838
0.0439809
3.21353
2.85021
24.1561
0.0440086
0.0453261
4.25332
0.0439814
0.0439906
0.0439851
0.0439783
0.0271221
0.0260628
6.17893
107.583
18.9021
231.345
0.0568956
300.086
0.0577817
0.060841
0.0440198
0.0439905
0.0594093
0.0440118
0.0549141
0.0440159
0.0443139
0.0440244
0.058722
0.043982
0.045284
0.0589181
0.0439963
0.0440292
0.0440249
0.0440164
0.0440791
0.0440296
0.202049
0.0439896
0.0440369
27.4473
0.0440114
116.251
148.461
0.155973
68.9925
0.157969
164.942
0.143421
0.0440298
0.0440298
0.0440047
0.174922
0.0440298
341.164
0.0440475
0.0441354
0.0439961
0.0439875
0.0439664
0.0440297
0.0439704
0.0433649
0.0439997
0.135347
0.0439781
0.0439794
92.5227
0.0445883
0.0440573
419.201
0.186017
0.0440085
0.0440216
0.0440222
0.113564
177.421
72.1349
197.095
90.3468
0.0440196
0.0439526
0.0439962
0.0440992
0.0440185
0.0440121
0.0568189
0.0440134
0.0439821
0.0439996
0.0442824
0.0440218
0.0440299
0.0439935
0.0439973
7.57297
12.7796
37.2521
0.341377
0.328752
0.0439843
0.0440234
81.7686
0.0427738
0.0439983
60.7766
0.0569164
0.0440342
0.0439897
0.0719769
26.9226
0.877953
0.0440127
0.0440298
0.0593731
80.628
0.0440298
0.044033
0.0440298
0.297327
32.2222
0.0444652
0.061202
0.0439923
0.04403
0.043987
0.0440117
0.0440033
0.0439979
0.0440262
0.0440477
0.0439932
0.0440427
0.0440604
0.0440758
0.0440656
0.0738188
0.0440019
0.378213
1.96592
85.7466
7.08795
0.155882
0.147605
0.767426
0.594467
0.0440298
0.0441045
0.0440833
0.063431
0.28077
0.180708
0.0256041
93.2609
390.207
2.29857
12.7291
0.0561623
0.0351816
0.0444305
138.807
0.807085
11.0603
0.0440596
0.0440102
0.044026
0.0440506
0.163345
0.195372
0.123857
9.89532
0.0442422
0.0440608
0.0440473
0.0440363
1.81935
0.0546603
0.044086
0.0440584
0.111332
0.0305248
0.0440033
0.0440125
0.0440122
0.0440067
0.0440285
0.0440258
0.15204
0.0439632
0.0440275
0.0440011
55.0196
0.0443532
0.0448711
0.0457066
0.0439975
6.21201
0.044012
0.044126
0.0440521
0.0612766
137.95
20.7221
0.0440229
0.381131
0.04405
0.0440281
11.0229
0.0921133
534.48
140.746
0.116038
0.0440298
5.06502
0.0439986
0.0440298
0.0440298
0.0442149
0.0440298
1018.56
0.0440043
0.163182
2.99736
0.0439842
0.0440059
0.0687684
0.0444253
0.135852
0.0440295
0.0992502
0.0440295
0.0442257
6.46515
0.0440418
0.0439634
300.086
0.0440199
0.0440501
0.0440247
194.678
26.9737
0.0440322
2.924
0.0440175
0.0440134
0.0440499
0.0440301
0.0440074
0.0440667
0.0439992
0.0440298
0.0440307
0.0441138
0.154716
0.0439955
0.0265516
0.0440895
0.0818222
0.0581348
0.135992
165.854
0.0440298
0.0440298
0.0440037
26.2639
89.6868
0.0440298
0.0440891
215.522
43.3258
0.0968543
695.035
1.47818
0.044065
0.174632
0.173955
0.044373
0.0440054
0.0440127
0.0443268
0.133734
0.043363
70.1165
0.0440295
0.0439794
1290.59
420.406
0.0442217
61.6017
269.142
0.0440785
0.0441302
0.0614731
0.0440609
449.184
0.0594959
0.0592194
0.0619705
0.0439871
0.0440038
383.144
0.0960166
0.0441165
0.0439931
0.0440565
0.0440006
0.0440254
0.0440247
0.163192
736.4
0.097341
0.0440286
0.0439979
0.0440297
0.044021
0.0443487
0.0439962
0.0441221
0.044989
1.32974
0.0439919
0.185856
0.16772
0.0440006
0.044084
0.0439987
397.028
0.0440225
0.0449231
0.357649
0.141901
0.0439383
0.0440296
0.0439869
0.043988
0.0443612
181.882
0.0447903
0.0440076
132.692
24.1904
0.0440481
187.61
0.0438216
0.0162339
0.0463737
0.0440513
0.0893139
0.0440472
0.0440012
0.0440388
0.0442846
0.0444023
0.044256
0.0630872
0.044427
0.0594961
0.0443189
0.043476
0.0445848
0.0440548
0.0443563
0.0441261
0.064308
0.181266
200.131
0.0450503
0.0459938
0.0574328
0.0439939
0.062489
0.122614
4.0053
0.0612787
0.151948
0.0440061
0.0679819
0.822951
0.0439997
514.234
232.379
0.798516
0.0605044
0.0577846
0.228439
0.0440535
0.044092
0.0157903
71.6411
0.0432592
0.0440299
0.236849
0.0441146
0.0440049
0.0618633
14.3259
994.329
0.0440268
0.207941
0.0440174
0.207624
0.0439722
0.0440226
0.0993602
0.0440586
0.0635387
7.9441
0.0362679
0.0612359
135.11
0.0445125
0.417089
0.0440422
0.143221
13.9937
0.0543934
0.0441695
0.0431338
245.985
73.1264
8.19291
0.0441588
0.0441006
70.2734
0.0439544
0.0440244
22.2065
11.3045
0.0605213
0.0440189
0.0439931
0.0440304
0.141972
0.0440144
0.0440262
0.0440252
0.151536
0.0441226
0.0440298
0.0424609
0.0664597
0.0440197
0.0440306
84.0112
47.097
0.043952
0.0440462
0.109211
0.293583
0.0440748
0.232277
0.0605871
0.0650251
3.79175
0.0440423
0.0858521
0.0564119
0.044014
0.0441139
3.27488
0.102886
766.608
0.0439788
239.592
2.88711
0.237223
0.201717
0.0320049
2.18789
5.0765
75.8136
0.20499
29.0885
0.150963
0.0439825
0.0442559
0.151342
0.043997
0.0439568
0.16376
0.738079
0.0440253
0.0441497
0.0439776
0.0439775
0.0586991
0.165139
0.043987
50.1605
0.0439947
0.0440442
4.12765
0.131459
42.4322
0.044433
0.115307
187.226
2.57431
67.7561
0.0440299
0.0439937
0.0440645
0.0440059
0.0570075
0.0641018
0.044004
0.0439995
33.6245
146.732
0.0632781
345.23
0.164494
402.031
0.0576995
130.755
0.0441817
72.1205
0.0576211
0.164358
0.0441617
0.0440298
551.721
0.0440298
0.0440299
0.0440541
0.0440298
0.0440298
0.0553491
0.162355
0.0289952
0.0440298
233.648
304.054
0.055199
0.0440248
0.0440105
0.0440337
0.0440352
0.0367257
0.0440114
0.113337
0.114162
0.0440278
0.0440298
197.003
166.528
0.0896494
0.134915
0.0442099
0.0614445
0.145565
0.0440298
0.0440298
0.0439737
272.079
0.044024
0.0440289
0.0440294
0.044014
0.0569325
0.0440704
0.0443988
207.672
0.0497791
0.0677876
0.0439221
0.154852
0.142543
175.938
0.0165956
0.0440068
491.325
0.0440068
0.04403
0.0440153
0.126266
0.0439961
0.0578509
0.140346
0.0440298
0.0440279
0.173317
0.04403
0.0440219
363.162
0.137462
0.0446103
0.135335
0.0440032
0.0440297
0.0440296
0.0440298
0.0440107
403.897
0.0439715
0.0940335
0.0567701
0.0440298
0.0440298
763.684
0.044147
0.16598
0.0570616
0.0440298
0.044028
0.0440301
0.0439864
0.0547386
0.157922
0.0440265
0.0574126
0.152284
0.0440218
0.0440298
0.0558447
0.0440131
0.0440299
0.0562017
0.0553992
0.0440297
0.04403
16.5727
0.169361
0.0570207
0.17112
0.140662
0.0455776
0.13486
0.0440105
0.0440282
0.0439686
0.0439894
0.0440298
0.0445769
0.325298
0.0440301
0.0559566
46.844
0.0570477
0.0441297
0.0440104
20.7634
17.2462
0.0566024
48.1407
0.0440282
127.842
0.0439957
0.0440124
0.0440298
0.0440083
0.180517
0.0440301
0.141205
0.0440063
0.0440298
0.0440298
0.0439982
0.0570179
0.054719
0.165265
0.108544
0.0440298
0.0440298
140.73
76.1111
0.0440298
0.0440133
22.5381
0.101402
0.0379571
0.133951
0.042154
0.0440302
0.0440298
0.0440298
0.0440229
0.0551349
0.128076
0.121459
0.0440298
0.0440048
0.0564316
0.0441237
0.169067
0.044016
0.0440203
0.0440443
0.0575241
0.0556079
0.0575077
0.0440292
0.0545523
0.14329
0.0439909
0.0440295
0.0435019
0.145671
0.0440315
0.0440293
0.04402
0.0439863
0.0440298
0.148546
0.0597004
0.04403
0.0440298
0.120665
0.0440125
0.0440298
0.19716
0.195392
0.0581128
0.0440292
0.0440298
0.0578409
0.0440298
0.0440298
0.0440644
0.0440125
0.0440298
0.0440298
0.0440298
0.0440298
7.19913
0.0440298
0.0440298
0.0387535
29.7545
0.242212
211.295
292.073
0.0439977
0.196372
25.6481
2.82819
0.0561501
84.1727
0.044043
0.14944
5.78207
0.0704024
18.8268
0.0584611
59.3299
0.578296
0.284012
20.2331
0.0440313
0.0440298
0.201623
0.0440251
22.6588
14.6446
892.522
0.437028
17.0117
14.4275
196.066
18.9419
395.251
0.0439604
0.0440291
0.043982
1920.98
4.15255
0.0440076
0.0569837
0.0440055
0.0440301
0.0439534
0.15004
0.0443627
0.0571476
0.0440114
0.0439663
0.0445977
0.0440223
0.815225
0.0564454
0.0441581
0.751039
721.92
0.155211
0.0439907
0.160089
437.603
0.0939738
0.055497
0.0440292
0.0440083
0.0567026
0.123507
0.0592576
0.0440307
0.0581476
603.423
0.0441809
0.0439876
0.124522
0.0439895
1001.34
0.0550402
0.0440298
0.142157
0.047939
0.0440782
0.0595293
0.0576428
0.157027
442.381
15.4332
0.0441745
0.15064
0.065221
0.0440157
0.0441168
0.063623
0.202202
0.044017
0.0439937
0.0440276
0.184152
0.0601034
0.14344
17.0842
12293.2
260.094
0.119567
0.166542
0.0440268
0.0439626
0.0439874
18.4528
0.0440428
0.0588456
0.433969
0.0500376
252.145
61.0249
395.488
0.0440295
218.819
206.011
0.0440056
0.0441009
0.0623556
0.0444862
0.0440105
0.0439998
220.759
0.0440667
0.0442453
0.0439845
0.044327
161.357
0.236052
0.0439979
0.0440079
0.157533
0.0440298
0.0439905
0.271534
0.160714
0.058026
0.484206
0.0440145
0.0576958
42.6858
0.0440485
0.0439925
0.158985
0.0570347
0.104054
0.0440252
200.825
0.160243
0.150105
0.0438807
7.91493
0.0447545
0.0440576
699.54
0.0556377
0.0440334
0.0440126
0.0446142
0.0440295
0.0435286
0.0440296
0.0984203
0.0440173
0.043975
0.0445878
0.0471694
0.0439897
0.0440986
0.0440776
0.0440017
142.871
0.0444785
1.53641
0.172524
0.0440297
0.146785
0.518652
0.280069
0.37806
0.276495
92.3386
3.76405
91.1129
0.0442748
0.106666
0.0440243
0.136296
0.0440417
0.0440199
7.63061
0.0439874
95.1923
298.534
0.0462141
0.0439396
0.0440179
0.0440061
14.96
0.154954
0.0440501
5.67428
0.045309
0.0440229
4.83681
0.0439944
389.751
198.299
0.0440104
0.0440215
0.0440152
0.0437216
0.0440182
43.2382
0.106274
32.0294
0.0440143
731.245
0.0439958
0.307982
462.846
239.961
886.856
0.235133
0.0436886
0.0440259
105.495
137.404
0.0440295
0.0445618
411.183
0.0439813
0.0439905
0.0440298
63.4781
0.153736
0.0439934
0.0440003
0.043997
17.1494
0.432608
0.0440245
0.0440654
0.0439773
0.0635738
0.0439761
0.0442508
0.0442628
0.400558
510.674
0.604932
0.0441069
0.417154
13.6296
0.0439892
0.043981
0.0510286
0.0594943
0.0442261
0.0440895
88.1604
3.22665
5.73846
0.0440303
328.098
0.0567497
0.0440297
399.945
4.7558
0.705168
1.62695
0.151352
0.0440299
0.0440298
0.0437424
0.0440076
0.0468204
0.0441856
90.414
0.0440716
0.289679
361.381
0.0440285
0.0452707
0.0439925
0.0440295
0.0983454
0.0440674
4.1552
0.0440296
0.0440297
0.0377347
2.44754
127.143
0.586468
0.0440237
0.550154
0.0440869
0.0440039
0.636038
0.345324
0.0440258
15.7374
12.7191
0.0439911
10.3776
4.15221
1.62588
0.75108
113.224
0.362113
0.101578
0.558585
0.0443004
1.657
0.0440298
0.0439842
144.731
0.609295
49.2758
109.328
61.7467
40.1361
0.0440297
0.0441771
405.557
1.21362
19.0413
2.32548
4.36697
8.10731
43.22
63.7998
206.236
0.0959911
99.7981
503.076
0.0542825
468.433
134.406
0.0265002
0.0573685
0.139221
0.0447142
64.6624
0.0594763
47.9125
520.802
0.0440249
173.478
0.0440295
0.0496821
0.380717
0.050037
8.92353
3.38827
0.0557622
0.132422
0.0439975
0.0440524
0.147426
76.9705
0.044029
0.350567
0.0436451
0.0440303
0.0462504
0.0556454
0.0440379
0.0440298
0.0440298
0.043966
0.11317
0.314052
0.0440465
0.0440929
0.0439991
495.291
0.0440298
0.0435286
0.0444464
0.0440298
20.2055
0.331054
0.044077
0.0440651
823.599
24.333
0.0477055
9.81283
0.0440501
0.0440478
0.144554
428.175
0.0449297
0.0439866
0.0336083
0.0444097
80.4377