/*--------------------------------*- C++ -*----------------------------------*\
| =========                 |                                                 |
| \\      /  F ield         | OpenFOAM: The Open Source CFD Toolbox           |
|  \\    /   O peration     | Version:  2312                                  |
|   \\  /    A nd           | Website:  www.openfoam.com                      |
|    \\/     M anipulation  |                                                 |
\*---------------------------------------------------------------------------*/
FoamFile
{
    version     2.0;
    format      ascii;
    arch        "LSB;label=32;scalar=64";
    class       volScalarField;
    location    "0.4";
    object      k;
}
// * * * * * * * * * * * * * * * * * * * * * * * * * * * * * * * * * * * * * //

dimensions      [0 2 -2 0 0 0 0];

internalField   nonuniform List<scalar> 
32842
(
0.0166562
0.0166789
0.016655
0.0166547
0.0267338
0.0166545
552.202
334.873
0.0166547
0.0166528
10.6772
91.7049
0.0166541
0.0166547
0.016638
0.0166548
0.0166438
0.0166543
0.0166466
0.0264218
0.0278733
0.0330967
0.0259697
0.016655
0.0267469
0.0166547
0.0166546
0.0228623
3.72379
0.0166396
83.1512
0.911023
162.734
0.0166423
321.637
739.599
0.0300009
0.01671
0.0166908
0.0166543
0.0166548
0.027762
0.0166547
0.0166547
0.847425
0.016635
103.558
0.0166491
0.0273842
0.585236
141.871
0.0166547
0.924495
2.94422
0.0166549
0.116939
0.0166547
10.5107
0.0166548
0.0166547
303.187
0.920535
0.924593
0.0279132
0.0166611
129.465
0.0166548
0.950016
0.916501
0.0167273
0.0225733
23.2742
0.917747
0.0166547
0.0166547
0.0165957
0.350783
0.0166547
0.920795
66.0744
0.0266015
0.0166547
0.0166547
0.927535
0.9477
0.0166547
0.0166547
0.0974042
0.570125
0.0166528
0.0270217
0.0272374
91.893
0.0166507
0.0166547
0.0166417
0.918841
0.0166428
0.932416
0.0166547
0.0166547
0.0339756
0.016753
29.2025
0.918896
0.91429
18.7482
0.0156756
0.902233
0.0166732
0.0166534
0.0166509
88.3893
0.0166532
0.0167588
0.0275398
0.927675
31.0082
0.0167417
0.01665
0.0166484
0.0166528
0.145711
0.016655
0.0159362
0.922138
0.894233
0.0166519
104.419
0.0166549
0.0166547
0.0163966
0.0387837
0.889598
0.0382712
0.0166579
0.0348088
3.40898
0.0166441
0.0166412
0.921047
0.0166431
0.924796
3.59481
0.0166519
0.0166426
417.454
0.0166437
0.0166547
0.0166469
0.0172579
0.813395
0.0255677
87.4204
0.0166611
0.0166547
0.0166547
0.0166458
0.016649
0.0166533
0.0166578
0.0166547
0.0258244
0.0166547
0.0166583
0.0166459
0.0166547
0.0166505
0.0166791
62.7906
5.67475
0.0340595
35.0464
0.0166547
0.0281597
27.7277
0.016642
0.0167555
0.0166547
0.0166505
0.0226288
0.0166408
0.0166491
0.0166547
0.928238
0.0166475
0.912536
0.016641
0.0166562
0.0166427
0.0166395
0.452302
0.914102
0.0166547
0.916087
0.016661
0.0166287
0.0166623
0.917476
0.0166463
0.0166364
0.0167665
0.686313
78.4368
29.4875
0.0618218
0.0166612
0.0278729
0.907246
0.0166618
0.0166556
0.0170667
41.1266
37.5784
0.0166421
0.0166547
0.0166631
0.0166882
0.0166578
0.0166525
0.264843
0.0166547
0.0166535
0.0166584
0.0330292
0.905172
0.0166549
0.921147
0.0166546
107.373
0.0166519
0.0166522
0.0166063
0.0166547
65.3276
0.0264176
0.0267723
0.416264
0.0166635
0.924631
0.828773
0.0166717
0.0166615
102.835
0.0166464
0.0166553
0.921847
0.0166547
0.0166547
0.0166715
0.0166547
0.0166546
0.0166538
0.923495
0.0166619
0.0166545
0.0166515
33.4901
0.0166456
0.0166497
0.0166543
0.0166547
0.0166547
0.0166548
0.910584
0.0166546
0.0166524
0.0166442
0.0166876
0.0166549
0.0166533
0.930446
0.0166541
0.900919
0.0166545
14.7639
0.0166542
0.0334346
0.0166547
0.0166624
0.0166533
104.563
138.66
0.0166547
0.0166508
0.0829041
73.2638
0.0166547
0.0278659
0.0166547
480.261
0.0166549
0.914427
81.4624
0.740001
0.0162683
0.912835
0.0166513
0.0166376
0.0256664
117.824
0.0166547
0.0166422
0.0166603
0.0166547
0.0166547
0.0166547
0.0166547
0.0166345
0.920488
0.0166657
0.0166547
0.927203
0.0166493
0.0166547
0.0166472
0.0166573
67.6094
0.0166467
0.0166366
0.0166559
0.417618
0.0166469
0.0201396
0.0166549
0.0166467
0.0166539
0.0166549
0.0166612
0.0166547
0.0166609
0.933331
0.0166547
0.0166547
0.0166434
0.0166547
0.940996
0.918953
0.0166547
0.0166462
0.0166503
0.0166535
0.037723
0.0166547
0.919992
0.0166547
0.0166547
0.908705
0.923307
0.919983
0.0168047
71.9647
0.0166437
0.91865
0.0166533
0.0166079
0.0329276
0.0166569
0.0166498
0.0166386
0.0166547
0.0166547
0.0166536
3.22428
0.0166544
0.0166502
0.0166547
0.0166547
0.514124
0.0252867
0.0166547
835.146
0.0166514
0.0354863
0.0166547
0.90417
0.0323042
0.0166547
0.0091369
0.0259725
0.0166472
0.920282
0.928976
0.0166475
0.016664
0.016655
0.0166547
0.0166547
0.0166547
0.0166466
0.0166477
0.0166535
0.0166445
0.0166547
0.0166464
0.0166547
0.0166536
0.0166541
0.016652
0.0166665
23.5957
0.0166547
0.0166464
0.0166916
59.6671
0.0166551
0.0166523
0.0365002
0.0166547
0.029878
0.877189
0.0166519
0.0166547
0.0166486
0.0166482
0.0166561
0.0166569
0.0166556
0.0166442
515.68
0.0166475
0.915214
0.0166547
0.0296443
260.025
0.0166547
0.0166456
0.0166547
0.0157534
0.0166549
0.0166227
0.0166547
0.0166547
0.926
0.0265507
0.921801
0.0166544
429.282
52.5286
0.926141
0.028005
5.59895
0.0292432
0.927925
0.0166832
0.0166492
0.0212259
0.0166549
0.0250188
6.42065
0.016655
0.0166466
0.0166722
106.133
0.0244477
0.0166476
0.0166468
0.0270791
0.0166528
0.0167552
0.0166487
0.0285323
0.0166547
0.0166548
0.0166547
0.0166607
0.0166454
0.926042
0.0166437
0.0166923
0.0166547
0.0286874
0.0268663
0.0166547
0.0166618
0.92712
0.922928
0.0166547
0.0166549
0.0166547
0.0166547
0.0266272
0.0166492
0.691918
0.926793
0.0166436
0.0166549
0.929463
0.0168336
0.0166547
0.0302582
0.0167379
0.0214862
0.0170606
0.911042
0.0280494
0.911355
0.922799
0.0218771
0.0166356
0.0311536
52.9894
0.0166602
0.922894
0.0320314
0.932176
0.0244649
0.0166536
47.6058
0.0303368
0.0166428
0.920827
0.0166352
0.897396
0.0166442
0.0166549
0.0327975
0.0364226
64.3609
543.877
10.9493
32.8924
40.9726
27.7042
95.5563
0.930995
0.0166546
0.0166424
0.0166643
0.930035
5.40365
0.936644
2.29635
0.0166459
0.0166427
0.0246666
2.07421
0.0166551
307.195
15.3111
0.0167539
63.3731
0.0119565
21.047
0.0166805
0.0166547
0.0166486
0.923662
57.3637
0.0166547
0.0288691
0.0166708
0.244609
0.915054
0.0166462
0.0166532
0.0166416
0.0166547
0.5645
1.63081
0.0166547
0.0166547
0.01665
0.903201
0.535222
0.934624
0.0166526
0.016646
0.0166547
79.8985
0.931772
0.919354
41.9303
0.914155
0.0166547
30.1408
0.917226
0.0166565
134.325
0.0166548
0.0266827
0.0166547
0.0196742
0.026902
0.0259915
0.0166547
0.016642
0.0166451
0.0166457
0.931575
0.0286211
0.0166549
0.0166543
77.22
0.0166547
0.0487082
56.6303
0.941338
0.0166456
0.0166502
47.6838
52.8614
294.193
0.0166501
48.329
0.93294
0.711279
0.0168113
0.826809
0.0166549
0.0166533
0.016655
0.0166547
0.0166547
0.767415
0.0271419
0.0166476
0.0166547
0.0166432
0.0166547
0.0166152
0.0166471
0.0166499
0.188174
0.930489
0.0166481
0.0166547
0.448634
0.611876
6.08442
0.016638
0.449376
0.0166533
0.0166547
0.0167039
54.7805
0.925849
0.0166547
0.0296754
0.0166547
3.63387
0.0166547
0.0166547
0.0166549
0.0166546
0.470918
0.0166547
0.0166547
28.2509
2.30341
0.0164899
0.0166486
0.0166529
0.923939
0.942365
0.0166547
0.916422
0.0270985
0.0166547
0.0166547
128.934
141.275
0.0166547
0.929781
128.644
0.0166556
0.494783
0.0166431
0.0166547
0.0314822
0.03161
0.0176142
0.0166638
116.492
0.0166547
45.6877
0.0166542
0.0166547
62.0475
124.498
5.93472
1.33582
0.0166547
0.0166525
0.0252419
0.0261213
93.8867
41.2212
133.855
149.09
0.0166834
0.016802
140.021
0.0166539
4.79819
0.0166526
0.016718
0.943465
32.072
0.0166497
0.0166657
0.0166543
0.0166505
0.0166489
0.0166547
0.0166507
0.0166547
0.0166547
0.927239
0.0166547
0.0166913
0.0166547
0.935955
0.0166502
0.0166581
0.01666
0.884839
0.0166547
0.0166425
0.0165154
0.0166322
0.0166488
0.0166549
0.0172929
0.016667
0.0166479
0.0166398
0.0166387
0.00494382
0.0166454
0.0305188
0.0208249
0.0286145
0.0166547
0.0323664
0.0379967
0.903371
0.0166411
0.0166574
0.0302936
0.699288
0.0166547
0.892492
0.0304783
0.0166547
0.0166547
0.0160017
0.0166554
0.0166611
0.910366
0.0166547
0.0166429
0.0166533
0.0297703
0.895278
0.016643
0.0307206
0.0166547
0.0252047
64.383
91.8015
0.0279463
0.0166553
0.928058
0.016641
0.0166547
0.0166489
0.0166448
0.0167533
0.0165889
0.392089
0.0166547
0.0168149
0.924541
0.0319153
0.0166421
0.0167002
0.0166547
0.914731
0.0385938
0.926364
0.0166424
0.921846
0.906913
0.0278911
0.0166549
0.0247964
0.016648
0.028708
0.0166462
0.0166454
0.027625
65.7817
0.8992
0.0166455
161.996
0.0166494
0.896948
0.0166519
0.016654
0.0166424
0.0166547
0.0166253
0.0167208
0.0166471
0.0166467
0.0166547
0.0166479
0.0166472
0.0166597
0.930448
0.0167858
0.371177
0.0166582
0.0166499
0.0292816
13.0235
0.0166552
0.0166563
0.0276276
0.0166496
0.0167356
0.0166626
0.033234
0.946764
0.0166547
0.0166546
0.0167
0.0166501
0.0166546
0.0166767
0.0166445
0.0166547
824.023
0.0166473
53.2438
0.0166453
0.0166453
0.0166628
0.0166632
0.0273447
0.0166565
0.0166547
0.0166547
0.0166471
0.884264
0.0166547
0.0167082
0.925278
0.0166461
0.919943
0.0166484
176.653
0.0166447
0.0166536
0.936498
81.851
0.0166042
0.0166418
74.6182
0.0314189
0.0166458
0.0166483
0.0166547
0.0166373
0.0166408
0.911174
6.87981
0.90546
0.0166547
0.917583
0.0166447
0.016657
0.0166796
0.0264424
0.0209017
0.0166467
0.0166523
0.0166546
0.0166509
0.016719
0.0166547
0.0166536
0.016639
0.0166324
0.132379
0.0310655
0.0166547
0.514832
0.987639
0.0166151
0.0124092
0.119889
0.0166547
0.0166479
0.0166535
0.890314
0.0166547
0.0166547
0.907461
0.0311604
0.0166467
0.0166547
0.0166547
0.0166465
0.0192555
0.741302
0.0166529
0.0166317
0.919926
0.0166734
0.0166668
12.8613
0.016651
0.0166547
0.016655
0.0166502
0.918063
0.0166524
0.0166223
0.0166545
0.0166579
0.0315246
0.0166547
0.919849
0.0267693
136.618
0.0166547
0.0166547
0.0166527
0.0166554
0.0166537
0.0166547
0.155349
41.8057
0.0242687
0.117083
0.0166547
0.0253883
0.0166547
0.0166547
0.0166862
0.0166547
0.0166416
0.0166547
0.0166547
0.0166499
0.0166502
0.0166545
33.4912
0.0166533
0.939428
0.0166551
0.929029
0.931804
0.0166547
0.0258056
0.920776
98.4876
114.39
0.177998
0.0166556
0.016655
0.0166547
0.016655
0.707941
0.0166549
0.700315
0.602405
0.328117
0.558347
0.02104
61.5267
0.0166547
10.3329
618.572
0.0166478
73.6891
0.0102928
0.0166421
0.0166547
0.0166419
20.7691
0.0166471
0.916369
0.027175
226.264
0.89701
0.921908
0.0351561
0.0166547
0.016655
0.0166393
0.0166614
0.0167721
0.0166543
0.0166451
0.0166521
2.6142
0.0314368
0.0166399
45.0836
0.0166454
0.0166471
0.0166695
0.0166534
99.3075
1.1732
0.0166415
0.016659
0.016648
0.914212
0.410591
0.01664
5.24905
0.896224
7.1538
0.0166519
0.0166535
66.0562
0.926604
0.0166445
0.0166746
0.0166585
0.0166606
45.0851
0.0166725
0.88772
0.0166584
0.0166547
0.0166456
0.0166439
0.0183289
9.75163
0.0166439
0.0166596
428.345
0.496756
0.915231
0.0166589
30.9375
62.9311
0.0166496
0.0166549
0.0166512
0.933382
49.9996
0.0166535
0.0278439
7.66421
0.0166451
0.0208751
7.51699
0.0166421
0.016644
0.0166935
0.0166419
153.938
0.0166599
0.0166569
0.26044
32.4377
0.0217105
0.0221381
13.1579
0.0166538
111.329
0.891034
0.0166568
0.927955
0.931407
27.1482
5.49531
21.4154
18.6209
0.0166581
219.49
0.920126
0.0142805
0.0166526
0.0166435
0.0166504
0.0166499
0.0166528
0.0166557
0.0166403
47.4527
0.0166547
0.0166535
0.131399
0.0166547
0.0166473
120.843
0.610765
0.0305218
0.0193179
0.0166546
1.77998
156.061
0.909079
0.0166564
0.0166538
0.0166787
1.58504
75.9984
0.0348046
0.0165846
38.1936
0.0166612
8.12843
0.0171093
0.0166417
1.26598
0.0302557
0.0166506
0.318627
0.0166488
0.0166468
1.06407
88.1074
49.8597
0.0166444
0.0166523
0.0166547
0.0166456
0.0167853
0.0182382
14.3871
0.0166547
0.0166547
48.74
0.016646
0.016654
0.900255
0.0166547
27.9679
36.2196
0.0166547
0.0166513
36.4319
13.712
30.1848
17.5001
0.0166659
125.87
16.3919
0.0376665
85.3458
0.0708735
0.923239
0.0166419
0.0166428
0.0161149
2.97377
0.0366388
0.0166541
1.26767
0.927577
24.7985
0.87738
0.0166547
0.543664
3.73185
2.7445
0.0166547
0.0166455
26.3971
0.0166597
0.0167191
0.532962
0.0168881
132.552
11.9621
0.0457338
0.0211829
0.0166545
0.016645
21.3208
1.01045
0.0166244
0.0167174
0.0166547
0.933978
0.0166801
0.49716
231.172
0.0167216
1.08419
46.1649
0.34066
27.622
46.1336
124.101
0.0167921
0.927453
36.5653
3.40716
0.0241236
0.0166547
31.3947
0.0166402
0.0162095
0.0376541
0.384751
0.915403
4.86566
0.0317619
0.908794
430.292
0.0166495
45.7981
0.034714
0.909508
30.9878
0.0166355
0.708376
0.700949
43.9764
0.0373307
0.0166548
0.930238
0.0166547
0.0275611
302.488
0.0260689
0.0166743
0.918618
1.33428
0.0166373
108.962
0.0166547
0.0166446
0.0166455
0.0166459
15.204
0.0254383
0.0166547
0.712991
0.940175
0.0166405
0.0166983
30.1841
0.0166459
0.0166547
0.0166787
31.8495
17.9286
0.0166532
88.4566
0.0166547
54.3348
0.590292
0.0169872
0.915806
15.4958
0.291057
0.0544759
0.0166756
1.86711
41.4081
25.0314
85.1565
170.91
0.0279576
22.1185
0.0166467
105.784
0.0166469
0.914275
0.0166756
11.8063
0.0166437
0.0275442
0.0219102
47.7164
8.28286
0.027258
0.016662
96.3041
0.912928
0.0166476
0.0166547
40.9479
0.576973
0.0166296
0.935691
0.0166495
8.80084
6.85721
0.936474
0.0166661
0.0166551
12.9021
94.9643
0.0287152
0.0166781
0.0317375
0.0166454
0.0166574
7.91478
0.0166547
0.899128
0.925027
0.0166742
4.37632
0.0166513
85.4707
52.5949
0.0166547
0.0394951
16.0557
0.0166548
0.0166547
0.0166613
0.799839
0.0166431
0.016738
0.0166878
0.0328635
0.0167317
0.0168636
0.01667
0.0166541
0.0166546
0.0166683
0.016643
0.0166615
0.0166577
0.0166545
0.0166509
24.9594
0.0167272
0.0166553
98.0309
0.0106891
0.0166432
0.016652
0.0167111
0.0166547
0.0313103
13.7877
0.0166356
0.0166785
0.0167684
0.017507
0.963312
23.3493
0.0387775
0.900959
63.9327
0.0166518
0.0166435
116.912
73.8547
0.0279992
0.911856
0.0166742
0.0166375
53.9813
0.0288735
71.6723
0.0310402
0.0332926
0.0241083
0.0166367
70.1908
0.0166626
0.016655
0.0325888
67.3783
144.353
0.900586
57.9116
0.0260781
0.02529
0.0727314
0.0166138
61.6293
29.4611
0.0257053
43.9348
0.0166448
114.961
0.0166467
0.0184321
0.0167129
9.15204
0.0166547
58.2277
0.0166704
0.0166609
0.0331917
12.4539
1.32688
0.0192829
0.0166441
0.0166568
29.7777
0.0166604
0.0166547
47.8351
0.0166547
19.8553
0.0165958
0.0166396
0.0168028
0.0166441
0.0166417
0.0166547
20.3923
0.0166494
2.75651
0.858208
0.0166743
0.0166596
0.0166403
0.0166498
0.0166638
0.016649
51.8801
0.0166473
0.0166387
0.0166547
0.0327939
0.90333
0.0166372
0.0167241
0.0166514
70.1692
0.0165982
0.0166428
0.0166474
0.0166419
0.0166618
0.921527
0.0166414
0.0166491
0.0166383
75.7907
0.0167421
0.0166455
0.0166617
0.921491
0.0167569
0.016791
0.314269
0.0166465
0.0167707
0.0166802
10.0613
0.0166515
0.0166454
0.0152497
4.60652
31.3502
0.0166492
89.8118
84.4708
72.2994
0.0166463
93.4581
0.338178
0.0261414
0.016657
85.6242
59.444
0.0166319
0.0166549
0.0166696
0.0166429
61.1806
44.8512
0.016648
0.0166547
0.016043
0.0166526
0.0167502
64.9177
0.0166542
83.3307
103.405
0.0166548
0.0172547
0.696771
0.0172429
0.0126098
0.0166608
0.0166621
0.91427
0.0166526
78.0045
0.0166351
0.0169111
0.0166535
0.914763
0.0326068
0.0166425
0.0166178
0.0166544
0.0166502
0.014883
0.0166847
38.4188
0.0166528
0.190998
0.169389
0.0399589
0.016655
0.176084
0.945383
0.0166423
11.8915
1.23446
0.0385116
0.0166683
0.0166467
0.924388
13.7535
0.844073
0.351227
0.0166519
0.0166547
0.0411797
0.0166596
5.42855
0.0166468
0.0166486
0.0313311
0.165497
0.0166602
0.0166547
37.5967
0.0166547
0.0166465
0.0166547
0.0166547
18.1405
0.890321
32.6179
0.0166547
0.0166483
0.0166435
108.93
0.0170332
50.6321
84.1542
0.0321648
0.0166509
0.0166537
0.016649
0.0166547
83.2824
82.8755
0.0166547
0.016645
0.0166489
0.0166468
0.918464
0.0166547
0.926934
0.0166547
0.930386
0.0297901
9.14291
0.0166548
0.0166496
0.0166547
0.0167451
0.0167225
0.0167656
0.0166547
0.911275
0.0167457
3.2369
6.17447
3.47085
0.0166406
0.0166469
0.0166549
0.0166547
0.0168785
78.6715
0.0166547
0.0166497
0.0166463
0.937615
2.92455
64.9463
124.573
73.9307
0.91305
0.0400138
636.901
0.01646
0.916615
0.0165606
0.0166258
0.0357401
0.772608
51.4693
0.0643431
0.0166667
0.917608
61.1608
0.0166541
0.0166543
0.0167473
0.0166943
0.0166369
0.0166593
0.0274976
47.5234
0.0166544
33.2649
74.9719
0.0166528
0.0166547
0.0166547
0.016661
0.0166536
0.0166482
0.0166601
0.0328968
12.1094
0.01673
2.18867
23.0861
0.0167707
5.01708
0.929731
0.0166499
0.0272256
1.59607
0.0175988
0.0285455
0.0285014
15.7911
0.920995
0.0167193
78.1732
0.0166546
0.0166444
0.126714
0.0166513
0.0166572
0.0166486
0.0166548
28.7738
0.0166581
0.0166649
0.0166493
0.0166547
0.0166501
0.0166642
0.0166493
0.0167153
0.928214
0.016654
0.944403
0.016641
0.017386
0.016735
0.0166452
59.7135
0.0166998
0.016678
0.895849
0.00935805
0.0166352
0.0166357
0.00828034
0.113841
16.6102
0.0170872
0.0166547
97.0342
0.0166446
0.0166418
0.0166416
0.583424
0.0166477
0.0166478
0.016643
13.6133
0.0254814
0.0166443
0.0274733
0.0166476
0.929659
0.0330477
0.0166508
0.467189
0.0166549
0.0166434
0.0166466
0.0166483
0.0166532
0.0166404
0.0283699
0.0166442
0.0166424
0.0171338
0.918199
25.5098
0.0166701
0.0168367
0.0341905
0.0169944
1.66137
0.913231
0.354212
0.0172475
0.0167377
0.0280995
0.016646
0.0170904
0.01664
19.2808
0.888119
0.0300673
0.920198
0.922178
0.0166471
0.0166549
0.928014
0.0166534
0.0166513
0.288348
0.0288922
0.0166552
0.0166426
0.0132377
0.0166529
0.0166549
0.0166444
0.0166547
0.0166491
0.944773
0.0166444
0.0166515
0.0166459
0.0166487
0.0166547
0.299782
1.16341
0.0335162
0.0166576
0.0263647
0.050399
0.016659
0.0166429
0.0166476
35.4674
0.921748
8.90865
0.0166449
79.571
0.0166425
0.0166557
0.874035
0.91404
0.0166574
0.0167062
0.0166547
0.016652
0.0166629
0.016642
0.0166483
0.0166524
1.70974
1.2335
0.921944
0.0166489
0.0166504
107.353
0.0166568
46.4158
0.0166413
0.0260997
0.0166624
0.0166547
0.0166445
57.3221
0.721046
0.0165027
0.0164766
0.0166543
0.0166547
0.00713103
0.0166504
0.934091
0.0285224
40.8025
0.90842
0.0166547
55.6098
0.0166547
0.0166479
0.0166547
0.0166547
0.0166601
0.016662
0.91975
0.0166423
0.0461973
0.0166547
0.0168597
0.0166603
356.358
0.0166591
0.0166531
88.5117
0.921284
0.0166361
0.0166423
0.0166442
0.016646
0.514124
0.0166529
0.920202
0.0166686
0.0166486
0.167231
32.6145
0.0166582
0.0162842
0.0166527
0.0174916
0.0166547
0.0166547
125.872
0.0166606
0.0166547
0.0325565
0.0166547
0.0166517
0.0166471
0.0166549
0.0167084
0.0495389
0.0166513
0.016823
4.65633
39.934
177.426
0.0166548
0.0166501
50.6697
0.0166473
0.0168715
105.634
0.0166418
69.2028
63.9731
96.0748
0.911455
0.0166497
0.0166464
0.0166532
0.0166547
0.0166501
0.905066
0.0166581
0.915347
0.0166549
22.4121
0.132475
0.0166529
96.1281
0.0166474
0.0166519
0.0196288
38.6909
0.925876
0.0166547
10.1602
0.0166631
0.0166547
0.0166483
0.0166726
0.0166467
0.0166547
103.977
0.90621
0.0169309
0.016654
0.0168328
0.0166547
107.305
0.0166547
32.7744
0.0166465
0.0166547
0.0165769
0.0298587
0.0166484
51.8833
120.583
0.0166542
0.0166717
0.0166432
20.028
0.0166612
0.016645
0.0166621
21.114
0.0166926
0.0166547
0.0166752
0.495588
59.5307
31.8808
110.343
5.89883
100.393
0.0166543
0.016655
0.0167126
25.313
0.0166518
0.0166551
22.701
0.0227937
0.975939
0.0166554
0.0166485
0.92689
0.929422
115.121
0.0166547
0.01665
38.6398
23.2155
0.102977
43.3727
0.75642
0.0166485
0.0166698
52.9554
0.0166454
0.0166455
0.0298447
51.1087
0.025163
68.6007
0.915739
60.1529
0.016658
1.05022
33.4999
0.0166644
0.0166638
66.0506
0.0167042
0.0166578
0.0166465
0.0166526
0.016937
0.0717787
0.0167544
333.275
0.016659
0.0166547
0.0166543
0.016575
0.0239234
0.451597
0.0166527
0.0166352
0.0166495
8.87905
90.4465
0.0166408
0.0166576
0.0158709
0.0166478
0.0176889
0.0166474
0.016646
96.7823
0.016795
86.8612
0.0166547
21.002
0.0166414
7.78202
7.39659
28.7628
0.0166489
0.0170165
11.1147
0.0166409
0.0166443
0.0166422
0.0166408
0.00510536
0.0774419
12.4112
56.7418
22.7233
127.926
0.0287801
114.649
0.0294771
0.0311306
0.0166517
0.0166438
0.0341334
0.0166493
0.0266295
0.0166508
0.0167338
0.0166528
0.0307631
0.0166417
0.0170059
0.028923
0.0166456
0.0166546
0.0166527
0.0166505
0.0166669
0.0166547
0.901284
0.0166438
0.0166558
29.1515
0.0166489
76.4345
88.4207
0.920265
62.626
0.917886
97.8
0.92011
0.0166547
0.0166547
0.0166472
0.907579
0.0166547
63.2341
0.0166587
0.0166787
0.0166457
0.0166432
0.0166368
0.0166539
0.016638
0.0163418
0.0166465
0.918546
0.01664
0.0166413
90.0235
0.0168115
0.0166611
70.7972
0.915325
0.0166488
0.016652
0.0166525
0.940339
40.9265
40.7455
129.388
50.6353
0.0166514
0.0166341
0.0166457
0.016673
0.0166508
0.0166498
0.0285018
0.0166501
0.016642
0.0166465
0.0167246
0.0166519
0.016654
0.0166443
0.0166578
11.1048
13.6711
37.2294
0.312721
0.785779
0.0166417
0.0166522
53.8578
0.0159429
0.0166462
48.7365
0.0280582
0.0166551
0.0166435
0.0432493
13.5826
0.801699
0.0166492
0.0166547
0.0306362
46.1603
0.0166547
0.0166547
0.0166547
0.275838
56.8541
0.0167705
0.0310939
0.0166446
0.0166549
0.0166429
0.0166491
0.016647
0.0166455
0.0166529
0.0166588
0.0166448
0.0166575
0.0166621
0.016666
0.0166635
0.326953
0.0166468
0.313437
7.09361
56.4957
15.2086
0.91749
0.931876
2.64324
2.56871
0.0166547
0.0166745
0.0167212
0.214283
0.869711
0.913014
0.101026
48.2301
105.398
8.97695
24.6251
0.0274147
0.0128496
0.0167688
60.2882
0.999357
22.7397
0.0166619
0.016649
0.0166536
0.0166595
0.896773
0.868488
0.108796
25.6554
0.0167273
0.0166622
0.0166587
0.0166558
7.67286
0.0232778
0.0166693
0.0166616
0.933085
0.009093
0.0166474
0.0166496
0.016651
0.016648
0.0166544
0.0166528
0.909485
0.0166178
0.0166541
0.016647
56.006
0.0167447
0.0167866
0.0171304
0.0166452
9.44122
0.0166494
0.0167293
0.0166599
0.163253
19.5061
11.7305
0.0166523
2.7874
0.0166593
0.0166536
20.6068
0.925085
74.3357
48.1233
0.904261
0.0166547
17.7452
0.016646
0.0166547
0.0166547
0.0167054
0.0166547
34.4413
0.0166474
0.662425
9.18426
0.016642
0.0166479
0.0350143
0.0167643
0.927804
0.0166547
0.0681451
0.0166547
0.0167083
16.5674
0.0166569
0.0166362
123.033
0.0166515
0.0166594
0.0166525
127.953
22.3632
0.0166547
10.661
0.0166509
0.0166495
0.0166594
0.016655
0.0166479
0.0166637
0.0166458
0.0166547
0.016654
0.0166912
0.153742
0.0166484
0.00796732
0.0166713
0.0506708
0.030295
0.410232
87.8717
0.0166547
0.0166547
0.0166468
27.5349
109.432
0.0166547
0.0166843
154.04
53.6952
0.374722
113.271
5.84303
0.0166633
0.896974
0.917264
0.0167489
0.0166473
0.0166496
0.0167601
0.92612
0.0162969
80.5568
0.0166547
0.016641
77.837
364.711
0.016709
70.4311
151.714
0.0166676
0.0166812
0.0317184
0.0166619
124.59
0.030231
0.031672
0.0330293
0.0166428
0.0166471
51.6374
0.0655958
0.0166929
0.0166441
0.0166609
0.0166465
0.0166533
0.0166531
0.910652
53.6108
0.448708
0.0166544
0.0166455
0.0166547
0.0166516
0.0167394
0.016645
0.0167229
0.0169213
2.3715
0.0166439
0.865541
0.923556
0.0166469
0.0166691
0.0166457
87.2353
0.0166528
0.016883
2.3987
0.940994
0.0166095
0.0166547
0.0166426
0.0166431
0.0167472
73.5944
0.0168697
0.0166484
14.3204
31.384
0.0166484
63.2895
0.0165397
0.00349324
0.0180873
0.0166597
0.941366
0.0166583
0.016646
0.0166563
0.0167237
0.0167555
0.0167157
0.0361882
0.0167655
0.0239469
0.0167241
0.0897263
0.016814
0.0166603
0.0167312
0.0167033
0.0346837
0.905623
67.3731
0.0168949
0.0177489
0.0285242
0.0166447
0.0333895
0.910422
15.5577
0.0319278
0.562295
0.0166477
0.037567
4.71206
0.0166466
69.1367
46.7198
3.83245
0.0311034
0.0285295
0.880224
0.0166601
0.0167091
0.0298589
90.5276
0.0167386
0.0166542
0.344883
0.0167032
0.0166475
0.0322827
8.77612
271.253
0.0166532
0.840045
0.0166506
0.838859
0.0166236
0.016652
0.894841
0.0166617
0.0342098
22.7931
0.065624
0.0325623
68.4606
0.0167923
0.532115
0.0166576
0.938924
8.95197
0.0253748
0.0167259
0.0173421
58.9915
51.0278
15.1085
0.0167233
0.0166975
50.7473
0.0166337
0.0166522
31.0466
19.6247
0.0312944
0.016651
0.0166442
0.016654
0.92943
0.0166499
0.0166528
0.0166535
0.387278
0.0166924
0.0166547
0.0112153
0.0363547
0.0166513
0.0166542
63.9183
41.4356
0.0166366
0.016658
0.864701
0.629757
0.0166663
0.809369
0.0358958
0.0344196
3.63723
0.0166571
0.308603
0.0276068
0.0166499
0.0166907
8.21648
0.16584
94.0888
0.0166405
159.415
2.78971
0.153745
0.882872
0.0527321
6.99475
9.94984
61.9295
0.88966
32.3178
0.905672
0.0166414
0.0167782
0.925614
0.0166455
0.0166347
0.921326
1.1738
0.0166531
0.0166873
0.0166399
0.0166399
0.0296591
0.920952
0.0166425
10.303
0.0166445
0.0166578
3.96936
0.920401
29.9094
0.0167674
0.952034
157.926
7.26367
69.7495
0.016655
0.0166441
0.0166794
0.0166476
0.0282
0.0328917
0.0166469
0.0166458
35.9721
29.1632
0.0370759
172.108
0.919969
178.171
0.028684
38.3684
0.0167414
46.5571
0.028911
0.924836
0.0167327
0.0166547
147.019
0.0166547
0.0166548
0.0166519
0.0166547
0.0166547
0.0257459
0.908439
0.0555108
0.0166547
155.464
147.815
0.0255826
0.0166534
0.0166495
0.016655
0.0166555
0.170153
0.0166491
0.8955
0.897825
0.0166542
0.0166547
111.394
154.251
0.943735
0.92731
0.0167483
0.0335799
0.929337
0.0166547
0.0166547
0.0166289
170.339
0.0166532
0.0166545
0.0166547
0.0166506
0.0271948
0.0166857
0.0167598
140.559
0.0211738
0.0396966
0.016588
0.91572
0.930067
73.8747
0.00375379
0.0166483
69.4202
0.0166483
0.0166549
0.0166587
0.944621
0.0166458
0.027993
0.940333
0.0166547
0.0166542
0.919467
0.0166549
0.0166526
76.6308
0.937086
0.0168201
0.935037
0.0166473
0.0166547
0.0166547
0.0166547
0.0166497
61.8051
0.0166392
0.91279
0.0281132
0.0166547
0.0166547
50.59
0.016708
0.877445
0.0286245
0.0166547
0.0166543
0.0166549
0.0166432
0.0252692
0.920145
0.0166539
0.0276233
0.914865
0.0166526
0.0166547
0.0262041
0.0166567
0.0166548
0.0264539
0.0258557
0.0166547
0.0166549
21.7982
0.912907
0.0273223
0.927392
0.927479
0.0171007
0.936145
0.0166496
0.0166543
0.0166384
0.016644
0.0166547
0.0168176
1.61185
0.0166549
0.0269946
37.6362
0.0276052
0.0166849
0.0166494
9.8725
3.74793
0.0273714
17.9071
0.0166543
11.9662
0.0166454
0.0166498
0.0166547
0.0166585
0.905917
0.0166549
0.929097
0.0166592
0.0166547
0.0166547
0.0166463
0.0273518
0.0252226
0.91271
0.934746
0.0166547
0.0166547
31.6449
35.0579
0.0166547
0.0166499
15.3657
0.937877
0.0104097
0.921796
0.0139364
0.016655
0.0166547
0.0166547
0.0166529
0.0256055
0.928284
0.938432
0.0166548
0.0166481
0.0266506
0.0167258
0.920951
0.0166505
0.0166522
0.0166577
0.0276692
0.0260194
0.0284091
0.0166546
0.0253857
0.92066
0.0166439
0.0166539
0.0163434
0.924052
0.0166761
0.0166546
0.0166513
0.0166425
0.0166547
0.929576
0.0296617
0.0166549
0.0166547
0.949198
0.0166495
0.0166547
0.903261
0.904108
0.0283269
0.0166546
0.0166547
0.0280834
0.0166547
0.0166547
0.0166637
0.0166583
0.0166547
0.0166547
0.0166547
0.0166547
14.6131
0.0166547
0.0166547
0.0169162
36.3369
1.27059
137.779
88.6518
0.0166459
0.903462
29.4564
8.24836
0.026387
57.2237
0.0166711
0.894513
13.1806
0.27086
26.6701
0.0296501
44.9372
0.747811
0.954628
25.8533
0.0166548
0.0166547
0.187234
0.0166528
42.7278
29.0722
51.3907
1.88528
23.5994
29.67
159.264
8.63764
130.84
0.0166352
0.0166546
0.0166417
199.987
12.5448
0.0166479
0.0284652
0.0166476
0.016655
0.0166335
0.929605
0.0167459
0.0274008
0.0166488
0.0166369
0.0168119
0.016652
2.41772
0.0272795
0.0166882
1.5523
83.9263
0.90497
0.0166437
0.908752
149.248
0.938069
0.0280363
0.0166538
0.016648
0.0300944
0.102989
0.0310709
0.0166541
0.0294365
162.702
0.0167516
0.0166427
0.918994
0.016644
157.819
0.025443
0.0166547
0.928131
0.0188208
0.0166943
0.0331569
0.0278309
0.923816
157.157
7.75261
0.0167346
0.912957
0.0373213
0.0166634
0.016678
0.0355279
0.918218
0.0166514
0.0166447
0.0166533
0.885298
0.0326111
0.905876
10.0369
701.946
141.096
0.927196
0.930144
0.0166531
0.0166363
0.0166431
24.8819
0.0166571
0.0301475
2.93577
0.0203028
134.203
54.3401
42.1989
0.0166547
136.451
128.375
0.0166479
0.0166925
0.0334916
0.0168835
0.0166487
0.0166462
68.3326
0.0166641
0.0167106
0.016642
0.016739
56.5802
0.218004
0.0166452
0.016648
0.923284
0.0166547
0.016644
0.274773
0.923772
0.0310233
0.817917
0.0166496
0.0288724
46.2801
0.0166848
0.0166445
0.92776
0.0289042
0.0669537
0.0166776
95.0117
0.931794
0.915501
0.0166212
17.4319
0.0168585
0.0166931
42.7893
0.02596
0.0166547
0.0166502
0.0169152
0.0166542
0.0160269
0.0166547
0.0704517
0.0166506
0.0166396
0.0168075
0.0175414
0.0166434
0.0166735
0.0166672
0.0166463
118.039
0.0167822
1.7255
0.907996
0.0166547
0.5571
1.02595
0.2545
0.394679
0.281885
57.3152
3.8075
69.8946
0.016742
0.273825
0.0166533
0.125039
0.0166572
0.0166521
5.63987
0.0166427
77.5283
66.7565
0.0176194
0.0166299
0.0166507
0.0166476
7.75372
0.10401
0.0166594
6.29907
0.0170139
0.0166529
13.364
0.0166443
108.359
90.9868
0.0166488
0.0166526
0.0166502
0.0148583
0.0166507
34.0219
0.0765601
41.0985
0.0166506
69.3908
0.0166457
0.568439
71.518
41.102
62.2333
0.284366
0.0164564
0.0166537
74.6968
97.9991
0.0166547
0.0168005
51.9746
0.0166403
0.0166434
0.0166547
76.4819
0.919045
0.0166448
0.0166466
0.0166459
5.1178
0.410495
0.0166524
0.0166633
0.0166401
0.0335082
0.0166402
0.0167151
0.0167185
0.452441
115.194
0.730142
0.0166626
0.269817
5.91964
0.0166436
0.0166409
0.0205437
0.0293719
0.0167737
0.0166706
11.004
5.28912
3.29424
0.0166551
65.2168
0.0269855
0.0166547
100.907
4.32944
0.808728
2.21225
0.917926
0.0166549
0.0166547
0.0157064
0.016648
0.017859
0.0166986
87.6591
0.0166664
0.448137
97.082
0.0166544
0.0170075
0.0166554
0.0166547
0.0722126
0.0166639
35.5573
0.0166547
0.0166547
0.00589845
7.76671
45.1518
0.996795
0.0166531
0.418023
0.0166697
0.0166577
0.440157
0.741799
0.016653
34.1361
3.04372
0.0166441
15.0592
7.02506
2.02084
1.8847
113.048
0.346218
0.0711965
2.75946
0.016731
2.82529
0.0166547
0.0166424
81.3072
0.863201
26.2812
39.595
41.0826
6.34261
0.0166547
0.0166953
89.7347
2.59138
37.6362
6.59497
9.30455
17.968
32.2691
25.4258
71.706
0.326976
27.7612
60.3611
0.0254085
110.471
32.798
0.0101291
0.0295492
0.9268
0.016844
42.5027
0.0322818
32.4243
174.967
0.0166528
162.476
0.0166547
0.01996
0.463322
0.019351
2.69331
8.4163
0.153906
0.917398
0.0166458
0.01666
0.923962
81.716
0.0166545
0.738147
0.0164589
0.0166544
0.0150245
0.025982
0.0166559
0.0166547
0.0166547
0.0166431
0.93456
1.46375
0.0166526
0.0166671
0.0166454
47.1937
0.0166547
0.0156349
0.0168869
0.0166547
32.5711
1.20666
0.0166668
0.0166639
83.0264
41.0452
0.0187509
16.839
0.0166593
0.0166585
0.916261
113.578
0.0169062
0.0166422
0.00585162
0.0167588
85.3305
0.0166637
0.0166454
99.6337
110.11
0.503579