/*--------------------------------*- C++ -*----------------------------------*\
| =========                 |                                                 |
| \\      /  F ield         | OpenFOAM: The Open Source CFD Toolbox           |
|  \\    /   O peration     | Version:  2312                                  |
|   \\  /    A nd           | Website:  www.openfoam.com                      |
|    \\/     M anipulation  |                                                 |
\*---------------------------------------------------------------------------*/
FoamFile
{
    version     2.0;
    format      ascii;
    arch        "LSB;label=32;scalar=64";
    class       volScalarField;
    location    "0.4";
    object      p;
}
// * * * * * * * * * * * * * * * * * * * * * * * * * * * * * * * * * * * * * //

dimensions      [1 -1 -2 0 0 0 0];

internalField   nonuniform List<scalar> 
32842
(
101315
101410
101325
101325
101325
101323
97369.2
99812.7
101325
101299
99840.9
98984.3
101297
101325
101325
101218
101174
101319
101220
101325
101325
101155
101325
101325
101179
101325
101323
101325
101575
101107
101655
101325
97974
101140
98709.1
98718.3
101339
101199
101389
101284
101325
101325
101325
101325
101162
101050
100314
101213
101325
101433
97819.3
101325
101132
102059
101325
101112
101325
102199
101325
101325
98395
101194
101325
101325
101376
100092
101325
101216
101325
101307
101325
101488
101325
101325
101325
101136
101939
101325
101233
100801
101325
101325
101325
101325
101325
101325
101325
101242
101223
101299
101198
101325
100996
101325
101325
101113
101197
101325
101325
101325
101325
101275
101517
101949
101186
101119
100222
101652
101136
101125
101307
101276
100279
101305
101521
101325
101325
101561
101633
101222
101242
101300
99078.9
101325
101319
101324
100997
101262
101658
101325
101325
101126
101107
101138
101243
101286
101003
101372
101144
101114
101228
101154
101325
101105
101253
101155
101374
101169
101325
101216
101231
101342
101218
101954
101293
101325
101325
101194
101221
101306
101337
101325
101325
101325
101231
101189
101325
101261
101159
102022
101392
101505
100923
101325
101325
101621
101139
101349
101325
101271
101028
101133
101241
101325
101325
101223
101141
101142
101305
101148
101106
101076
101325
101325
101325
101382
100943
101398
101325
101214
101048
101374
101225
99016.5
102009
101235
101375
101325
101325
101384
101305
101319
101800
101754
101153
101325
101403
101435
101342
101193
101527
101325
101309
101348
101292
101284
101325
101325
101294
100692
101288
101291
101328
101325
100721
101318
101317
101271
101410
101325
99461.5
101271
101381
101686
101178
101136
101325
101324
101324
101177
101325
101323
101250
101147
101290
101322
101273
101709
101200
101239
101319
101325
101325
101324
101322
101323
101294
101165
101129
101325
101307
101324
101317
101175
101322
101404
101292
101353
101325
101387
101306
101685
101916
101325
101241
101238
101990
101325
101322
101325
98892.2
101325
101325
101810
99119.6
101324
101325
101280
101133
101325
99280.3
101300
101157
101212
101325
101325
101325
101325
101016
101281
101217
101325
101325
101254
101325
101221
101328
100982
101221
101066
101312
101033
101220
101325
101325
101217
101289
101325
101381
101325
101374
101325
101325
101325
101159
101325
101325
101325
101325
101205
101246
101272
101305
101325
101325
101325
101325
101325
101325
101325
101154
102107
101158
101325
101307
101090
101063
101325
101260
101369
101325
101325
101287
98379.5
101321
101325
101325
101325
101329
101325
101325
99836.8
101272
101140
101325
101130
101409
101325
101239
101325
101192
101290
101429
101207
101414
101325
101325
101324
101325
101210
101227
101284
101186
101325
101188
101325
101283
101287
101261
101307
101702
101325
101180
101320
101823
101203
101255
101202
101325
101148
101047
101277
101325
101221
101231
101311
101325
101305
101149
102475
101191
101348
101325
101282
97272.2
101325
101195
101325
101305
101325
101181
101325
101325
101288
101325
101324
101293
100018
101864
101324
101290
98890.6
101407
101325
101264
101214
101325
101325
101325
101446
101325
101172
101151
101663
101325
101195
101183
101325
101222
101385
101325
101325
101325
101325
101325
101313
101194
101325
101164
101223
101325
101325
101325
101325
101386
101325
101325
101325
101325
101325
101325
101325
101218
100800
101325
101179
101325
101325
101174
101325
101024
101354
101325
101303
100845
101325
101290
101325
101339
101029
101213
102033
101315
101325
101156
101325
101325
101311
102016
101384
101158
101325
101025
101385
101175
101325
101371
101361
101867
98787.3
102323
101928
101849
101718
101776
101210
101294
101155
101418
101325
101606
101325
101348
101173
101167
101325
99788.4
101325
100327
100123
101311
101653
101299
101721
101172
101325
101202
101299
101989
101325
101325
101173
100073
101212
101198
101283
101150
101325
99534.6
99704.8
101325
101325
101143
101199
99640.9
101325
101267
101211
101325
101750
101287
100866
99977.5
101325
101325
102022
101366
101312
100540
101325
101325
101325
101231
101306
101325
101325
101145
101184
101179
101325
101214
101325
101290
101647
101325
101221
101150
101201
101325
101266
101559
101467
99202.1
101230
98589.3
101325
100800
101071
100246
101325
101306
101325
101325
101325
100763
101325
101222
101325
101164
101325
101339
101220
101217
100046
101325
101206
101325
99279.3
100223
101536
101060
100784
101307
101325
101203
99453.7
101325
101325
101192
101325
100116
101325
101325
101325
101303
101143
101325
101325
100089
100220
101174
101169
101302
101325
101313
101325
101325
101227
101325
101325
102091
101876
101325
101226
102097
101250
101073
101164
101325
101196
101228
101205
101318
102117
101325
101941
101318
101325
102069
101871
101607
101309
101325
101200
101325
101325
102017
102021
101823
101892
101496
101438
101813
101315
101340
101257
101325
101150
102007
101325
101013
101319
101260
101200
101325
101237
101325
101325
101155
101325
101135
101325
101283
101266
101331
101369
100979
101325
101125
101016
101170
101225
101325
101376
101355
101219
101098
101076
101083
101325
101321
101325
101325
101325
100875
101255
101325
101105
101335
101358
101976
101325
101215
101281
101325
101325
101536
101053
100945
101434
101325
101169
101276
101178
101325
101134
101288
101325
101325
102059
101997
101292
101311
101325
101142
101325
101234
101159
101325
101280
102061
101325
101273
101325
101374
101141
101292
101325
101312
101233
101319
101133
101222
101239
101237
101325
101183
101222
101308
101187
101196
101317
100714
101037
101186
100744
101325
101191
101245
101316
101157
101325
101208
101212
101202
101219
101325
101211
101204
101367
101295
101205
101340
101347
101236
101248
101465
101306
101318
101325
101258
101382
101200
101151
101228
101325
101323
101252
101325
101324
101315
101185
101325
94508.1
101213
100889
101176
101187
101310
101300
101243
101309
101325
101325
101219
100534
101325
101324
101325
101325
101229
101242
100533
101148
101284
101325
100601
101445
101123
100580
101308
101185
101213
101325
101076
101123
101202
99392
101330
101325
101419
101181
101464
101398
101275
101325
101216
101269
101323
101242
101532
101325
101281
101315
101228
101316
101336
101325
101275
100678
101144
101316
100823
101325
101235
101267
101191
101325
101325
101167
101340
101217
101325
101325
101198
101246
101202
101301
101204
101325
101159
101245
100412
101241
101324
101325
101250
100977
101214
101405
101322
101242
101271
101325
101325
101325
100325
101325
101325
101279
101311
101284
101325
100631
99782
101325
101262
101325
101325
101325
101325
101245
101325
101124
101324
101325
101246
101228
101322
101855
101280
101325
101301
101325
101325
101325
101325
101325
99779.7
99788.6
100982
101306
101325
101325
101325
101291
101325
100906
100579
101565
101589
101325
102073
101325
101720
98185
101233
101864
101453
101121
101325
101152
99490.7
101180
101328
101321
99494.1
101325
101325
101239
101325
101287
101088
101370
101058
101319
101190
101264
101582
101148
101098
101724
101165
101188
101262
101273
101053
102825
101112
101351
101199
101324
101204
101097
100900
101101
100986
101226
101242
101755
101207
101146
101312
101214
101298
101438
101387
101152
101253
101325
101192
101144
101295
101608
101164
101361
101380
101224
101032
101339
101739
101836
101241
101325
101252
101213
101696
101299
100970
101595
101177
101353
101584
101124
101183
101220
101151
101147
101333
101255
101512
99310.7
101221
101211
101979
101287
101636
101377
101323
101513
101301
101777
101628
100893
101641
101341
98196.6
101302
101179
101271
101139
101252
101229
101255
101219
101096
98225.9
101324
101309
101318
101325
101325
101014
101249
101249
101455
101292
101808
100980
101220
101237
101287
101340
99882.4
101563
101184
101271
100955
101366
101557
101329
101142
100576
101256
101220
101285
101214
101200
98094.4
101011
101787
101141
101244
101325
101175
101195
101432
101102
101325
101325
101831
101176
101286
100426
101324
101733
101748
101325
101242
101785
100977
100928
101550
101439
100861
101482
101044
101455
101456
101298
101117
101148
101413
100415
101216
101280
100110
101336
101342
101318
101325
101122
100065
101645
101325
101187
100800
101364
101265
100605
101530
100789
101693
101277
101227
101294
101156
101651
101460
101204
101440
101325
101175
101172
99089.9
98089.5
101369
100832
100312
101972
101697
101597
99641.2
101461
101325
101848
101576
101325
101325
101678
101103
101385
101144
101447
101325
101612
101414
101484
101065
101216
101763
101328
101178
99222
101032
101483
101964
101708
101345
101325
101325
101325
101204
100632
101325
101324
101235
101641
101053
101651
101325
101177
101190
101170
101792
101325
101325
101464
101139
101094
101325
99615.4
101175
101325
101307
101867
101706
101262
101914
101325
100987
101650
101245
101325
101288
101394
101150
101380
101347
101425
101463
101635
101607
101324
101797
101215
101691
101325
101325
101178
101389
101142
101325
101118
101510
100926
101325
101391
101586
100941
101200
101325
99691.1
102134
101292
101291
101203
101002
101593
101278
101359
101293
101627
101982
101205
101279
101361
101177
101251
101467
101325
101364
101389
101315
101534
101280
100396
101620
101325
101266
101621
101325
101325
101372
98991.6
101170
101325
101426
101292
101254
101222
101176
101317
101284
101470
101166
101381
101297
101294
101242
101651
101368
101308
100688
101096
101137
101258
101354
101325
101326
101054
101030
101325
101555
101505
101070
101639
101400
101160
101732
101259
101138
100278
101652
101197
101223
101303
101050
101598
101143
101559
101301
101373
101325
101044
101590
101395
101325
101026
101670
100111
101231
101668
101325
101325
101211
101424
101645
101787
101325
100965
101176
102041
101184
101447
101280
101419
101325
101968
101265
101376
101364
101561
102892
101392
101179
101321
102029
101369
101325
101465
101325
101599
101300
101184
101151
101136
101117
101325
100970
101230
100996
101508
101313
101360
101092
101234
101197
101224
100932
101200
101074
101325
101449
101211
101057
101384
101282
101625
101162
101114
101182
101121
101388
101212
101117
101225
101072
101595
101033
101109
101373
101325
101434
101145
101304
101180
101311
101033
101382
101274
101174
101328
101221
101682
101227
102058
102103
102102
101180
102053
101276
101209
101301
101993
102116
100986
101324
101385
101136
102095
102050
101221
101325
101130
101245
101399
102066
101285
101550
101863
101325
101027
101373
101086
101047
101220
101303
100932
101271
101934
101025
101085
101282
101407
101059
101150
101178
101321
101258
101077
101392
102026
101290
101567
101513
101114
101304
101513
101325
101143
101378
101332
101456
101331
101211
101254
101859
100986
101300
101255
101325
101112
101360
101719
101211
101210
101202
101326
101357
101325
101690
101325
101196
101325
101325
101382
101352
101788
101325
101203
101138
101762
101444
100669
102018
101309
101249
101283
101222
101325
101984
101904
101325
101162
101222
101213
101208
101325
101394
101325
101299
101454
101596
101325
101258
101325
101308
101429
101490
101325
101325
101249
101364
101509
101353
101126
101193
101325
101325
101254
101980
101325
101217
101195
101203
101327
101854
100525
101877
101450
101203
100218
101246
101325
101261
101272
101421
101312
100764
101383
101307
101280
101843
101317
101319
101225
101406
101050
101350
100954
101668
101313
101427
101587
101300
101325
101325
101374
101310
101240
101105
100894
100917
101194
100929
100943
101227
100941
101325
101325
101325
101031
101107
101218
101325
101379
101042
101595
101388
101323
101176
101411
101221
101311
101206
101325
101432
101206
101358
101325
101325
101218
101368
101172
101495
101325
101316
101197
101109
101272
101298
101200
101616
101515
101414
101321
101105
101024
101246
101023
101228
101871
101064
101325
100845
101143
101125
101113
101508
101194
101209
101154
101379
101139
101147
101325
101196
101541
101163
101229
101091
101325
101167
101164
101233
101305
101100
101325
101186
101123
101369
101255
102000
101250
101221
101227
101248
100764
101281
101592
101155
101301
101325
101195
101105
101102
100979
101412
101190
101201
101404
101183
101325
101178
101308
101239
101025
101151
101293
101156
101591
101275
101285
101155
101325
101211
101325
101175
101271
101170
101220
101325
102006
101567
101224
101331
101325
101171
101353
101163
101214
101022
101325
98572
101156
101585
101152
101309
101540
101235
101307
101497
101325
101251
101400
101113
101205
101262
101468
101599
101232
101221
101244
101370
101325
101354
101145
101325
101391
101325
101182
101607
101689
101505
101484
101320
101325
101505
101241
101325
101052
100918
101245
101325
100951
101325
101212
101325
101325
101361
101388
101325
101148
101235
101325
101399
101314
99022.8
101348
101264
100539
101325
101077
101131
101173
101191
101092
101282
101446
101332
101222
101085
101841
101281
101283
101272
101147
101325
101325
101465
101334
101325
101033
101325
101253
101178
101325
101575
101132
101271
101541
101432
101868
95279.9
101325
101255
100948
101221
101301
100757
101109
100822
100908
100911
101179
101220
101188
101276
101325
101230
101316
101339
101155
101299
100529
101196
101274
100975
101185
101241
101297
99419.5
101325
101325
99159
101365
101325
101233
101287
101166
101325
101024
101247
101198
101279
101122
101325
101006
101325
100902
101208
101325
101517
101110
101215
101907
101367
101243
101370
101173
100949
101271
101198
101393
100937
101180
101325
101302
101230
100777
100954
101566
101185
100463
101289
101234
101510
102100
101247
101300
100878
101365
101355
101299
101196
101325
101325
100648
101325
101224
100926
99071.2
101526
100904
100011
101242
101224
102115
101184
101201
101331
100747
101293
100749
101151
100749
101342
100648
100893
101416
101408
100924
101457
101332
101212
101255
101246
101337
101279
98068.1
101348
101325
101282
101117
101325
100227
101264
101069
101246
101056
100729
101105
101239
101349
101197
101128
101229
101199
100618
101224
100563
101325
100894
101133
100881
100915
101668
101238
101184
101000
101104
101184
101118
101129
101500
101283
100885
101824
100889
100525
101169
101650
101156
101247
101268
101158
101293
101227
101229
101265
101505
101188
101323
101137
101481
101323
101190
101323
101235
101241
101392
101325
101157
101171
101306
100882
101211
100939
100923
101318
100880
101230
100930
101325
101325
101325
101191
101118
101325
101650
101349
101361
101202
101160
101044
101286
101069
101267
101206
101129
101089
101147
100960
101506
101368
101045
101091
101237
101268
101287
101325
100934
100929
101490
100929
101253
101045
101199
101413
101233
101252
101352
101253
101149
101207
101395
101257
101285
101142
100987
101610
101040
100903
101117
101259
101118
101259
100913
101218
101202
100904
101215
101297
101132
101190
99901.7
101337
101209
101325
100977
101624
101325
101283
101325
101496
100726
101284
101320
101184
101325
101147
101213
101183
101161
101263
101352
101183
101335
101392
101435
101411
100895
101196
101542
101021
101513
101714
101173
101095
101446
101542
101325
101375
101174
101460
101381
101204
101485
101634
101202
101534
100821
101268
101207
101429
102051
101588
101588
101390
101232
101176
101302
101108
101124
101227
101144
101336
101357
101349
101313
101172
101206
101375
101384
101168
101202
101219
101221
101230
101208
101321
101265
101207
101215
101317
101158
101349
101527
101200
101334
101159
101004
101220
101063
101359
101016
100961
101372
101246
101388
101351
101273
101048
101246
100678
99165.5
101324
101325
101126
101186
101325
101325
101500
101325
100835
101205
101014
101084
101118
101206
101045
101169
101173
101324
101526
101324
101503
100953
101313
101044
101047
101257
101360
101260
100735
100931
101299
101385
101250
101220
101356
101325
101197
101412
101170
101325
101272
101425
101426
101160
101520
101359
101132
101122
100780
101033
101325
101325
101176
101319
100812
101325
101411
100349
100849
101226
99761.5
101090
101408
101078
101331
101416
101187
101212
101484
101277
101183
100820
101324
101131
100896
101165
101172
101470
100988
101321
101360
101489
101378
100948
101147
101367
101210
101128
101187
100611
101164
101352
101145
101369
101195
101297
101294
101155
100990
101685
101321
101170
101325
101237
101290
101152
101180
101472
101359
101143
101199
101457
101218
101277
101171
101823
101300
101222
101501
101424
101122
101325
101131
101152
101332
101535
101367
101178
101420
101315
101424
101213
101246
101471
101372
101357
101287
101329
101164
101285
101456
101608
101584
101346
101440
101422
101424
101398
101286
101357
101439
101331
101353
100973
101577
101470
101428
101415
101170
101086
101404
101220
101419
101242
101195
101309
101245
101209
101815
101520
100994
101418
101331
101302
101363
101291
101104
101574
101165
101268
101512
101182
101183
101230
101295
100317
101277
101207
101239
101149
101141
101256
101088
101297
101396
101459
101432
101338
101551
101326
101768
101251
101291
101610
101431
101380
101292
101616
100950
100942
101404
101301
100947
101007
101247
100868
100860
101400
101237
101152
101281
101226
101223
101259
101309
101314
101363
101325
101157
101253
101245
101277
100969
100927
100927
101326
101137
100977
101333
101202
101215
101232
100496
101316
101358
101222
101233
101412
101060
101006
100120
101108
100940
101749
101224
101316
101239
101099
101041
100635
101385
100810
101429
101116
101401
101180
101179
101033
101423
101249
101209
101262
101091
101089
101191
101404
101127
101498
101152
101334
99928.5
101412
101695
101437
101414
100948
101210
100728
101324
101143
101227
101194
101400
101234
101179
101173
100782
100912
101202
100897
101432
100771
101395
100891
101378
100839
101334
101014
101344
101325
99646.3
101325
101325
101325
101325
101325
101325
101143
101221
101325
100843
100849
101325
101308
101247
101298
101312
101329
101220
101354
101213
101318
101325
101078
100947
101325
101080
101468
101337
101325
101325
101325
101187
100850
101305
101322
101324
101271
101325
101281
101253
101041
101325
101446
101243
101325
101322
101403
101200
101226
101102
101228
101325
101220
101298
101208
101325
101250
101325
101319
101325
101324
101298
101023
101325
101269
101294
101208
101325
101324
101325
101259
101101
101115
101400
101182
101325
101325
101114
101417
101282
101250
101325
101319
101325
101173
101325
101325
101314
101325
101152
101298
101325
101325
101216
101325
101325
101325
101325
101325
100897
101325
101325
101325
101325
101274
101325
101258
101320
101104
101184
101325
101340
100953
101325
101247
100918
101256
101254
101248
100945
101621
101027
100937
101320
100936
101189
101246
101325
101179
101218
101325
101238
101156
101325
101325
101213
101325
101325
101325
101325
101325
101325
100955
100936
101325
101244
100931
101325
101403
101325
101394
101325
101325
101325
101302
101325
101325
101325
101325
101238
101325
101154
101325
101244
101292
101324
101325
101325
101216
101323
101260
101325
101160
101271
101304
101381
101094
101323
101250
101120
101325
101325
101325
101325
101325
101324
101220
101325
101155
101192
101325
101323
101325
101325
101325
101325
101247
101207
101325
101325
101325
101325
101342
101325
101325
101421
101332
101386
101398
101439
101112
101202
101349
101324
101325
101449
101262
101368
101313
100473
101318
101286
101405
100697
101130
101354
101192
101325
101155
101259
101385
101334
101619
101366
101447
101333
101740
101566
101997
101024
101323
101137
101642
101334
101201
101124
101205
101325
101004
101325
101530
101325
101204
101051
101561
101238
100952
101372
101573
100594
101785
101285
101146
101038
101690
101211
101040
101241
101194
100977
101336
101155
101284
101239
101693
101313
101137
101256
101179
101555
101324
101325
101325
101235
101209
101189
101325
101325
101962
101762
101414
101290
101432
101063
101407
101377
101384
101281
101178
101266
101378
101361
101370
98889.9
99865.8
101703
101345
101380
101273
101038
101156
101696
101317
101352
101411
101207
101622
101319
100382
101324
101668
101568
101210
101294
101261
101202
101205
101187
99961.8
101297
101405
101124
101306
102044
101385
101156
101199
101374
101325
101171
101407
101412
101288
101319
101218
101491
101885
101167
101176
101216
101246
101454
101032
101580
101228
101187
101452
101600
101476
101145
101383
101325
101283
101265
101461
101207
101580
101325
101126
101231
101093
101474
101310
101142
101284
101319
101144
101779
101207
101011
101325
101325
101213
100449
101439
101448
101188
101584
101601
101590
101193
101283
101306
101325
101263
101291
99876
101132
101744
101709
101363
100963
101209
101195
101627
101240
101282
101623
101464
101301
101845
101146
101713
101491
101193
101297
101181
101195
101235
101738
101280
101963
101272
101991
101134
101241
101867
101644
101760
100760
101210
101312
101946
101613
101324
101218
100842
101102
101142
101325
101741
101286
101180
101202
101200
101543
101364
101253
101403
101100
101102
101122
101389
101361
101388
100990
101410
101304
101547
101934
101164
101103
101203
101325
100973
101330
101614
101394
101501
101325
101545
101325
101325
101442
101373
101409
101362
101325
101325
101325
101144
101199
101428
101234
101346
101203
101391
101091
101321
101099
101157
101324
101198
101347
99526.8
101325
101325
101386
101771
101993
100402
101304
101333
101289
101079
101547
100809
101277
101754
101605
101171
101539
101358
100075
101363
101650
101221
101332
101625
101205
101346
101325
101150
101630
101233
101764
101871
101789
101609
101325
101296
101983
101357
101952
101345
101349
101808
101769
101392
101767
101395
100934
100156
101213
99956.5
99569.7
101388
101295
101262
101450
100925
101230
100910
100791
101240
100814
101324
101478
101046
101038
100976
101429
101428
101204
101153
101311
101239
100817
101323
101253
101091
101231
101443
101325
101303
101325
101325
101011
101150
101037
101325
101437
101151
100979
101325
101394
101222
101325
101102
100912
101364
101315
100984
100799
101247
101712
101311
101332
101206
101347
101151
101118
101394
101437
100905
101284
101187
100813
101382
101068
101390
101450
101427
101418
101169
101125
101477
101176
101480
101375
101366
100238
101198
101147
101472
100990
101487
101545
100403
100410
100925
101001
100860
101030
101128
101372
101293
101092
100188
101018
100881
101263
101424
101509
100977
101364
100807
101303
101549
101205
101250
101430
100899
101007
101042
99710.1
101344
100618
101309
101337
101305
101310
101290
101232
101249
101050
100868
101079
101414
100924
100968
101263
100967
100954
101263
101114
101527
100947
101379
101512
101367
101171
101085
101329
100982
101306
101357
101194
101375
101351
101380
100943
101664
100870
101727
101325
100813
99715.9
101355
101236
100856
100944
100928
100908
100921
101327
101392
101322
101359
101284
101204
101074
101102
100920
101122
101283
101183
101157
101397
101058
101036
101091
101260
101350
101272
101344
101652
101368
100932
101456
101064
101151
101080
101274
101078
101628
101430
101397
101091
101929
101385
101131
101338
101391
100944
101136
101103
100963
100942
101548
100216
101049
100950
100765
102087
100088
100929
100874
101019
101322
101105
101024
100951
101069
100849
101247
101244
100631
100851
100935
100847
101434
101548
101136
101527
102045
101268
100589
101027
101339
101184
101355
101009
102030
102043
101357
101244
100920
101452
100900
101379
101357
101498
101988
101314
101333
101452
101406
101477
101251
101144
101186
100522
100188
100416
100267
101323
100397
101537
101545
102036
100430
101127
101298
101321
102069
101325
101593
100498
101325
101339
101425
101239
101489
101404
100116
101424
101695
101198
101405
101146
101266
101121
101391
101324
101552
101852
101286
101366
101475
101894
101403
101844
101214
101244
101460
101370
101437
101300
101558
101336
101229
101376
102020
101325
101167
100220
100925
101978
101213
101270
100502
101313
101678
102065
101496
101854
101423
101315
101870
102007
101294
101325
101820
101307
101335
101271
101817
101453
101357
101239
101344
101508
101153
101355
101491
101573
101432
101311
101424
101359
100232
101308
101478
101419
101336
101404
101240
101355
101524
101329
101924
101292
101535
101339
101299
101966
101414
101414
101515
101454
101343
101165
101389
101421
101381
101981
101455
101537
101685
101474
101467
101066
102036
101325
101394
101406
101190
101279
101448
101341
101412
101185
101331
101633
101203
101483
101855
101214
101280
101329
101389
101412
101364
101726
101901
101607
101861
101571
101117
101446
101848
102014
101205
101394
101417
101382
101317
101585
101427
101025
101365
101283
101123
101318
101961
101468
101375
101306
101552
101325
101363
101955
101593
102046
101396
101299
101383
101536
101580
101436
101436
101324
101601
101390
101123
101406
101343
101284
101245
101420
101183
101479
101556
101746
101705
101728
100974
100614
101067
101202
101732
101431
101131
101275
101521
101223
101403
101795
101243
101383
101302
101364
101812
101352
101185
101398
101694
101202
101230
101303
101187
101255
101189
101604
101270
101681
101371
101200
101244
100571
101323
101281
101882
101326
101347
101427
101287
101411
101477
101396
101790
101479
101366
101333
101420
101734
102352
101324
101286
101263
101350
101412
101165
101119
101277
101046
101427
101394
101400
101031
101258
101451
101373
101596
101613
101725
101255
101383
101856
101645
100674
101524
101240
101644
101294
101222
101275
101675
100953
101313
101570
101264
101352
101462
101223
101437
101302
101377
101722
101627
101597
101348
101320
101389
99833.9
101138
101255
101039
101067
101435
101217
101131
101393
101410
101187
101448
101537
101230
101397
101384
101313
101227
101244
101415
101361
101431
101462
101032
101216
101332
101273
101355
101167
100924
101750
101529
101325
101630
101219
101315
100871
100866
101299
101189
100954
101289
100955
101712
101418
101621
101327
100754
101387
100905
101811
101278
101654
101212
101315
101228
101203
101432
100933
101284
101556
101361
101203
101163
101455
101398
101716
99778.3
101540
101397
101056
101453
101073
100836
100901
100833
101443
100530
101340
101093
101752
101372
101434
101119
101469
101254
100958
101182
101434
101395
101161
100697
101317
101325
101133
101108
101418
101576
101137
101630
101094
101433
101160
100587
101219
100045
100824
101374
101111
101331
101175
101396
101088
100872
101380
101323
101325
101445
101325
101431
101129
101226
101148
100817
101091
101432
101433
101212
101123
100961
101130
101399
100815
100941
100707
101475
100806
101160
100915
101324
101273
100117
101324
101467
101292
101466
101134
101486
101334
101206
101338
101109
101230
101003
101162
100948
100693
100840
99812.7
101214
101093
101164
101140
101077
101393
100203
101417
101325
100842
101239
101176
101184
101325
101227
101304
100238
101148
101147
101325
100951
100902
101268
101084
101246
101428
101282
101452
101310
101165
101171
101178
100949
101176
101325
101198
101281
100663
101222
100726
100534
100726
101374
101407
101258
101257
101155
100702
100699
101153
101297
101350
101273
101023
101621
101304
101510
100857
101053
101275
101049
100625
101090
100650
101259
101193
101271
100799
100142
100971
101294
101242
100797
101062
100945
101260
101310
101188
101443
100770
100514
101214
101316
100859
100234
101415
101194
101124
100861
101174
101433
101324
101290
101223
101325
101325
101087
101181
101325
101172
101184
101185
101325
101365
101325
101266
101325
101274
101261
100925
101325
101533
101287
101325
101274
101325
101325
101325
101325
101325
101325
101328
101340
101206
101371
101396
101218
101099
101320
101379
101007
101242
101003
101182
101346
101051
101463
101289
101142
101456
101286
101112
101473
101144
101341
101417
101318
101268
101109
101476
101276
101340
101021
101317
101016
101353
101253
101184
100956
101184
101351
100976
101242
101281
100985
101401
101295
101447
101018
101106
101325
101427
101387
101207
101211
101381
101224
101320
101336
101142
101496
101180
101325
101325
101442
101454
101519
101331
101325
101325
101231
101212
101325
101325
101325
101243
101272
101324
101325
101325
101325
101325
101325
101325
101243
101208
101325
101280
101325
101374
101324
101234
101325
101522
101325
101325
101235
101310
101324
101252
101300
101325
101325
101249
101095
101325
101325
101617
101299
101325
101325
101325
101325
101439
101404
101325
101220
100331
101150
101302
101322
101336
101396
101125
101325
101274
101325
101325
101293
101245
101249
101207
101196
101325
101325
101328
101325
101325
101325
101238
101212
101325
101325
101325
101325
101325
101325
101325
101474
101132
101322
101291
101319
101490
101463
101409
101325
101325
101373
101325
101325
101390
101369
101325
101539
101325
101196
101512
101325
101125
101085
101217
101250
101397
101325
101325
101022
101293
101325
101325
101563
101325
101586
101248
101325
101325
101354
101319
101168
101602
101327
101198
101251
101192
101366
100703
101204
101241
101260
101296
101250
101325
101320
101544
101224
101649
101325
101160
101327
101454
101220
101215
101146
101237
101206
101224
101533
101325
101507
101333
101237
101321
101564
101581
101313
101161
101401
101243
101165
101319
101244
101411
101311
101196
101177
101325
101325
101428
101244
101196
101284
101464
101275
101290
101224
101269
101125
101128
101280
101195
101236
101248
101150
101259
101689
101218
101136
101196
101325
101266
101231
101188
101324
101229
101128
101199
101564