/*--------------------------------*- C++ -*----------------------------------*\
| =========                 |                                                 |
| \\      /  F ield         | OpenFOAM: The Open Source CFD Toolbox           |
|  \\    /   O peration     | Version:  2312                                  |
|   \\  /    A nd           | Website:  www.openfoam.com                      |
|    \\/     M anipulation  |                                                 |
\*---------------------------------------------------------------------------*/
FoamFile
{
    version     2.0;
    format      ascii;
    arch        "LSB;label=32;scalar=64";
    class       surfaceScalarField;
    location    "0.4";
    object      phi;
}
// * * * * * * * * * * * * * * * * * * * * * * * * * * * * * * * * * * * * * //

dimensions      [1 0 -1 0 0 0 0];

oriented        oriented;

internalField   nonuniform List<scalar> 
62453
(
13.7585
-30.9109
42.6689
2.43087
-0.227378
1.9724
-7.3338
4.69442
0.00744388
-0.000594594
-0.00336788
0.00164594
-0.00472127
0.000450104
-0.000976219
0.0167725
1.10013e-11
4.64837e-11
3.99076e-11
5.1372e-12
-0.58116
0.178464
0.135153
0.64345
42.1024
9.98854
-30.0342
-11.2026
7.51612
-35.0494
-24.2023
9.79317e-11
7.54819e-11
-9.58002e-11
-4.07375e-11
-1.91008
-1.38122
8.16242
-2.54041
-2.32072
-51.8602
40.0786
36.6319
-25.1322
-9.19716
0.189253
15.3768
-18.8993
-1.90204
-4.98071e-13
-1.35857e-11
3.04054e-12
3.59768e-11
4.24793e-11
2.01384e-11
7.89771e-12
-4.47849
5.81118
8.65486
-9.06977
-20.2438
12.7996
-3.17755
10.3235
0.983482
-0.00424227
1.43372
-1.11261
8.8306
-16.4161
7.31445
13.4783
3.09732e-11
-1.36674e-10
-7.27701e-11
8.07389e-11
-9.71326e-12
-2.86827e-11
-9.57613e-11
3.31189e-11
-1.22072
11.2218
14.7506
-28.3747
-6.62892e-07
1.2002e-06
-1.23366e-06
3.01432e-06
-3.80709e-11
-2.52226e-11
-48.0424
43.7934
-4.3393
6.31314
0.0194446
-0.00340715
-0.00685287
0.00163542
-0.226464
0.0128339
-0.0696632
7.14165e-11
47.5668
12.3746
-57.9904
44.9482
-7.87883
-32.981
-2.21243
1.12442
0.683878
-0.738461
5.57058e-11
-7.98396e-11
8.4664e-11
3.89282
44.8625
69.469
-112.822
-17.1696
-16.7496
21.5948
16.9232
20.9485
-59.7158
42.2175
-21.5618
-2.08969
2.3898
5.10382
3.84592
-0.748329
-2.097
-18.9408
14.7641
-4.99414
-6.075
-3.45854
-7.25226
-26.2164
2.37246
14.4501
-3.96855
-0.00818692
-0.0140015
0.222325
-0.0742893
-0.000439567
-0.000166876
0.000913728
0.000188716
-1.4048e-05
0.000154513
-1.59966e-05
-2.03614e-05
-4.14692e-09
1.6295e-08
-4.03185e-09
1.17207e-08
-9.09474
4.52092
5.00496
13.3216
-41.2023
12.1126
19.9886
7.78617
2.69568
-3.69747
-6.40076
2.58847
24.4098
-36.2863
14.0123
7.63159e-08
-6.24554e-08
-4.63881e-08
1.27422e-07
-4.19339
47.6347
11.6809
-48.1173
30.4803
-31.302
50.821
1.27008e-05
-7.07222e-06
9.26249e-08
4.61328e-06
-24.9558
25.2753
-5.04048
2.06218
2.46276
9.84814
-12.3656
2.71468e-05
6.78995e-05
-3.31841e-05
1.08308e-05
0.0235579
0.760341
-0.892332
0.0404702
0.00627118
0.00900611
0.000300502
-0.00638701
-35.6394
16.7726
21.6928
-6.33758
4.52633e-10
1.05898e-10
-4.55396e-10
1.42297e-09
1.84503e-10
-2.68241e-10
25.4111
-17.4302
-17.1408
-1.889e-09
3.08398e-07
2.2517e-10
1.06514e-11
-3.07173e-11
-1.56287e-10
6.08159
8.79667
-11.0267
-21.8654
-44.0246
2.66515
20.8008
22.0861
0.000248432
-1.21633e-05
-5.04439e-05
-27.0692
17.5372
-3.67099
-2.78731e-11
-5.69942e-11
-1.6532e-11
-5.68106
3.04787
-3.62678
3.76201
-5.64219e-11
-5.84144e-11
1.2514e-10
-1.01375e-10
0.61817
-0.18896
1.76974
-2.14429
-9.87516e-10
1.41806e-08
-4.39425e-09
7.67267e-12
-5.87028e-11
-4.34938e-11
2.88704e-11
-0.00046807
-0.000313649
-0.000134866
0.00263724
55.8424
-10.0797
14.3467
-20.3091
-66.2614
27.0691
39.5866
0.00159552
-0.000475643
-0.000395088
0.000561132
12.3623
-7.29624
-2.44979
-0.528867
-0.468177
0.381665
0.580334
0.000464215
0.000584363
-0.000147053
-0.000439658
-0.000560537
0.000131455
0.00434703
-0.00148851
0.00257131
-0.000118195
5.56668e-12
-4.46785e-12
5.28838e-11
1.98245e-06
8.23617e-06
-3.68873e-06
0.000355975
-0.000219508
5.68412e-06
-0.000336927
0.444422
-1.07004
-1.18708
1.14248
-31.2832
1.24534
33.811
0.503424
-1.43929
-2.31184
5.51917
-6.64753
-19.3451
5.85963
25.9026
-0.0023281
0.0360553
-0.0147362
0.00079937
0.920697
-0.859621
2.02543
-2.36693
1.07625e-12
9.36502e-11
0.0059468
-0.00787678
0.0242172
-4.759
-16.0143
11.9065
4.32469
10.008
-12.799
-8.36146e-12
1.53596e-11
7.38088e-11
-3.95028e-11
-4.95977e-11
5.12891e-11
-5.70883e-11
3.05992e-11
-3.4179e-11
-2.07572e-11
-2.82841e-11
-6.03385e-12
1.11077e-11
4.10839e-12
2.92464
1.51149
5.43386
-6.21209
0.647759
-1.9977
1.01977
1.21427
2.366
-1.84904
-0.112264
19.2693
-6.49682
0.326114
4.54538
-3.10272
55.9576
-21.7699
-16.0385
-1.74358
-4.03463
2.05889
2.5647
-2.68496
-9.16697
18.8314
-4.01395
1.36456
2.33035
0.290438
1.00421
-0.574877
-2.33916
5.57669
5.7384
-6.13777
-9.61876
15.534
41.7717
-39.3119
50.0783
-56.0365
7.49856
-0.285332
-2.01011
0.577642
1.87651
-1.77258
0.234172
-9.00867e-11
1.5536e-10
8.77904e-11
-7.79905e-11
6.37085e-11
9.90355e-12
-8.92106e-11
2.37594
1.54587
-2.18496
1.52321
2.80111
-2.84615
-0.863262
-19.8648
-15.1262
1.69304
26.1356
0.123
9.30215
3.75554
-10.3142
0.369886
-5.86668
6.50849
4.91423
-82.337
8.72497
-8.20274
78.1458
-0.00707312
0.00334923
-0.00913444
0.0314017
0.127429
0.851822
0.00723398
-0.772708
0.118227
-0.0242167
-0.0469488
-0.392989
-9.88651
5.40742
-12.575
21.8101
0.639805
-5.31777
3.0328
-1.24634
1.19158
-2.70069
-0.000332448
0.00667655
-0.00575997
0.00530313
-0.00254069
0.000643129
-0.000650717
0.816758
1.13287
-0.914403
-0.407678
-7.41605
2.78398
9.79471
-3.9564
-4.10191
5.98793
-2.95181
17.7859
-8.75567
-9.70472
16.1368
-9.70308
-0.670948
4.36985
7.28721
-0.741794
-1.6418
-0.407911
2.88212
1.12015
-0.778189
-0.508699
-31.4406
-8.0994
17.4039
25.5913
2.2693
3.37013
-6.46343
1.56863
-11.7798
5.73431
3.49508
-8.54702
23.6818
-30.3899
5.13852
-2.54073e-11
-2.52742e-11
-3.06317e-11
-0.0244685
0.398115
-1.91384
1.56063
-6.05596
15.5226
-4.24319
-2.6906
18.2379
-23.2189
-3.74903
13.56
-131.129
110.252
-50.3827
34.7383
6.94851
-16.9079
-12.3806
27.316
4.42077e-11
-4.23448e-11
-6.69657e-12
1.25751e-11
4.38135
26.384
-24.6785
-10.3796
2.6536
-0.182116
1.06939
-3.10546
3.09126
1.65503
-3.49031
14.7392
15.0529
-12.7841
-17.3367
-1.11505
2.79966
-2.09179
0.676882
-1.20131
-2.9446
1.33047
1.31297
5.20751e-05
-6.17948e-05
0.000158302
-2.83257e-05
-0.000974536
0.00546236
0.000304012
-0.00176013
-16.0173
22.3401
-14.6214
12.6894
8.81127
-5.20208
-0.617399
19.8648
2.16802
-2.69726
3.45581
-0.583544
18.3327
31.6441
-8.90014
-3.52356e-05
-0.000749992
0.00123459
0.000962698
-1.23086e-10
3.72494e-11
1.40722e-11
1.26348e-10
-0.000328419
0.000283016
0.00130568
-0.0003158
3.14267
3.77667
-6.20896
1.26852
37.7868
-5.49513
-15.929
-11.1401
0.00192663
0.000526062
-7.87439e-05
-0.000891629
-15.4184
-1.87458
43.261
-3.73508
-22.1852
63.6795
5.23674
-26.8871
89.3114
-24.2404
-66.6603
-0.177854
0.0741036
-0.131547
0.282868
12.4722
-13.715
8.38318
-14.8854
-0.0430356
-0.0797612
0.00293432
0.0820914
5.06337e-09
-2.69853e-09
6.22678e-09
-2.47733e-09
-0.000207645
-0.000304725
0.000755422
0.000271892
-0.517369
-0.0382613
0.0698887
0.489557
-12.3198
-41.9088
14.6535
34.3557
-0.0714739
1.81921
0.0328101
-0.744173
-5.28886e-06
-4.2445e-06
3.30191e-05
-1.70801e-06
0.301012
-1.61229
11.2485
-5.51893
-5.36971
-1.66106
-4.10978
6.3358
21.5072
8.21905
-27.6833
-1.58187
19.9729
-25.2525
3.47601
-4.24505
0.00269062
-0.0219453
-0.0301776
0.113694
-1.96505e-10
4.02611e-11
8.53308e-11
10.8162
-23.6947
1.81962
12.3787
14.9821
5.38286
-4.58144
-19.0229
-0.722369
12.0727
10.9567
21.8029
3.2218
-31.3621
0.151274
-23.3128
17.4257
23.6987
-25.3391
-31.4179
-4.09247
-0.208538
-0.597052
-2.30026
3.35475
0.000192646
-0.000208824
0.000424293
-0.000308814
-0.000179616
3.53151e-05
0.00110207
1.17983e-11
-2.30951e-11
-5.90461e-11
6.34662
3.82017
-0.401447
1.17901
15.0908
-13.9716
8.70121
-12.7324
18.4711
-2.85101
0.326254
0.023848
0.0138644
-0.0183368
-10.6308
-1.17305
-4.23698
20.546
6.69212
-22.4476
18.6984
0.000541218
19.8299
-1.13934
4.13958
1.70563
0.0809337
-1.82591
19.7548
7.22209
-19.3863
-0.935644
-37.3622
-33.9242
32.4195
-14.5574
23.0331
9.6428
-11.1476
-3.31066
-27.5498
4.41286
28.7295
0.00497182
-0.00123247
0.00453105
-0.00284867
-0.00303646
0.0135232
0.853006
-20.4641
21.7377
-0.820632
-8.91254
17.7418
4.34933
2.59169
-8.3223
18.1107
4.33889
-6.61956
0.347522
-0.231204
0.405093
-0.517776
0.171113
0.357547
-0.183982
12.2387
-30.8807
-1.30822
17.9251
2.59992e-07
3.65984e-08
1.37064e-08
-5.4233e-08
1.64689
28.7208
-22.2127
-4.98095
0.837861
12.564
-18.2419
7.3244
2.88234
-7.86827
5.8025
-6.67971
-4.74332
-0.679116
4.61163
4.33948
-4.88486
-1.10284
0.00355271
-0.00783073
-0.0250861
0.0827995
0.820215
-3.17756
2.79192
1.61126
16.6058
-6.3451
5.07029
21.4213
-5.19495
-1.15544
5.35251
-4.36521
11.6385
-10.8878
-5.98608e-11
9.3518e-12
-8.74077e-12
2.15466e-11
-1.28705e-11
-2.54789e-11
-2.21302
15.2622
12.4872
-6.80275
-1.49351
0.46413
2.63157
-1.65494
6.05457
-0.570204
0.881385
-4.09912
-4.37035
9.03869
-5.17369
3.81229
8.37552
-7.90582
-5.24845
2.97086
0.0188126
-0.0157124
0.0318468
-0.011032
-0.676262
0.229213
0.327417
0.112123
-0.0216734
0.966527
-0.48861
-0.0638249
-0.191947
-0.563931
1.1626
0.838408
-0.387445
-2.13546
0.805943
21.5445
12.101
4.94447
-8.04916e-11
1.04043e-10
1.28624e-11
69.1527
-54.1542
96.3062
-110.306
9.96419
-1.44775
-8.17162
-8.25624
-1.25222
3.7903
-18.8711
9.27864
-7.49652
21.0116
8.29931
7.27216
-0.996721
-3.40375
0.948926
6.55774
6.47913
-9.96458
-8.73047e-08
-2.0638e-07
6.58655e-07
0.187417
0.410392
-0.196318
0.0872753
0.118931
0.0630203
-0.0723691
-0.0377279
-26.4329
25.0889
4.30239
-4.47578
-7.04653e-11
-3.052e-11
6.79361e-12
-6.57067e-11
0.299227
0.0539708
-0.10026
-6.47037
7.36136
2.80033
-0.363909
20.2598
-9.17079
-5.6347
18.9725
14.7198
-10.1891
-13.9917
-0.023406
0.00942862
0.585408
22.427
-5.4727
-15.5613
-4.55786
-0.452533
0.791334
-0.184471
-7.36342
16.3113
14.5138
-28.0028
17.1211
0.399886
1.64679
-19.6209
0.346646
0.0425093
0.896376
-0.69444
1.32015e-05
-5.82262e-06
-5.18406e-06
1.45579e-05
-2.9422e-11
9.28894e-12
-2.36025e-11
5.06523e-11
0.0104257
0.0983189
-0.0886021
0.0702859
-0.188617
0.209429
0.126592
0.476693
-0.154221
0.316398
-0.25876
2.88744
-3.68456
-0.259584
3.51205
21.1261
-0.735707
-7.68629
-0.107915
3.65923
11.8812
-18.4515
-5.00432e-10
7.68002e-10
4.10644e-10
3.79657e-11
3.14624
-2.07608
0.130819
0.882125
-0.0641765
-0.00921941
0.151998
3.57645
0.222718
-0.686962
-1.4713
5.75065
-11.096
8.68339
1.85213
-0.290198
-0.351285
-0.585308
0.550269
-0.707517
0.734427
19.5591
-5.59097
3.11715
-12.7776
20.9425
1.26612
-20.49
-9.42965
-0.0047181
-0.0130762
0.0306801
0.00149751
-17.4998
4.72766
-18.6527
8.91684
1.03413
3.40417
2.78636
-4.32747
-8.4987
5.56766
3.25425
4.18394
-0.441859
1.07283
-7.42573
6.77847
1.5145e-05
3.14671e-06
-4.76353e-06
-2.05062e-06
-12.0331
32.9467
10.1358
1.62204
-0.802514
-0.684223
-3.16606
4.24566
-7.45471
7.29859
2.57962e-11
1.43566e-11
-2.47036e-11
1.33144e-11
0.867945
0.088839
-0.447035
-0.130959
-0.000183423
3.99536e-05
0.000228998
0.000337695
58.2315
-85.8072
-46.1123
38.5461
8.60445e-11
1.04145e-11
-8.69575e-11
0.000268561
0.000125151
-0.000159291
-1.23715
0.0562321
0.988865
0.317555
-13.1206
-1.1806
-0.255915
2.74879
-1.45298
0.0011321
8.61514
4.75053
-4.45622
-6.85906
20.524
-16.9113
-3.00151
-6.43755
-8.28599e-11
9.59347e-11
-1.93668e-11
3.83846e-12
1.60075
-46.6387
0.0455764
5.07435
0.758983
-3.45744
-14.5301
-14.7158
4.08958
26.7383
-7.90404
23.8089
-8.56028
-6.11276
0.000866584
0.00213595
-0.0015676
0.000646698
-1.07228e-10
4.2572e-11
1.054e-10
2.68773e-11
1.35219e-10
-7.7762e-11
8.59913e-11
-8.92954e-07
4.81107e-07
-4.27378e-07
3.11503e-06
-12.3758
12.794
-7.68275
3.81658
9.14826
-4.23048
-2.66982
-12.6749
32.761
-20.4514
-4.65203
2.10454e-11
-7.31542e-12
6.55681e-11
-5.97796e-11
-1.74486e-10
-1.48278e-10
9.98038e-10
14.8466
-6.27801
-3.23954
-0.621515
5.6461e-07
-1.00818e-07
5.32786e-07
-2.3759e-07
-25.7945
7.30649
21.1599
-5.39574
-16.2364
-6.42386
14.1437
0.0769317
0.0314894
0.496456
-0.618276
19.3564
11.3636
-17.4457
-4.34234
16.0699
-33.563
-22.244
33.1439
-0.559178
85.5727
5.55177
4.23874
-82.2632
28.2169
-14.0974
-19.9646
-5.12333e-11
-3.81206e-11
-2.70382e-11
5.2836e-11
-1.37787e-11
-8.79672e-11
2.54439e-11
9.79257e-11
-10.205
23.6096
-12.8082
-11.2586
-7.12338e-07
-4.46776e-06
-1.50173e-06
2.65792e-05
-3.39065
11.6794
-3.4173
4.24514
-1.1574e-06
-1.11652e-05
4.54118e-05
-7.20958e-06
-7.75327
6.00325
-8.20566
-3.77787
-1.50666e-11
9.29116e-11
-3.17252e-11
0.000166506
1.99024e-05
-0.000129536
0.000167066
-1.22984e-10
-6.78177e-11
-1.83287e-10
-2.97807e-11
-4.30515
-23.5766
17.2153
0.0348202
0.00062144
-0.00813135
-0.00990867
3.93661e-07
2.69007e-07
-2.42815e-07
1.32937e-10
2.0116e-11
2.94796e-11
-1.69446e-10
1.33891e-10
-3.67461e-11
3.5364
6.35297
-27.1607
14.1283
20.0206
-34.1123
14.1838
-14.4484
44.1486
-4.93638
-32.0901
-32.9425
-0.68346
4.68907
-4.66568
1.86061
-2.8501e-05
-8.4017e-05
0.000115358
0.000148492
-3.71688e-11
5.12112e-11
-7.00661e-11
-1.54073e-07
-1.55068e-07
-2.60189e-07
1.16001e-06
0.000778422
-0.00732242
-0.00360803
0.0239149
1.51679e-11
-7.55713e-11
-1.88904e-11
1.8408e-11
5.93605e-11
-5.0668e-12
5.0294e-12
1.84643e-11
-22.3925
-0.183951
5.41344
32.4272
1.80735
-0.55541
0.814791
-1.78502
26.4908
4.36062
-1.18683
-2.58973e-11
2.78748e-11
4.36085
-4.59561
3.59997
-13.8177
-6.14167
-22.3657
38.2089
-20.4445
-14.8117
22.8419
-12.7006
28.1492
1.11001
13.9508
4.7199
-11.9717
-1.00887
-1.90073
-7.53151
-3.69023
1.57763e-10
1.14778e-10
3.16329e-11
-1.91025e-11
-3.57686e-06
5.20566e-06
-2.48473e-06
6.82681e-06
2.27339
17.2242
1.19419
3.92671
64.489
-10.2518
-57.1529
0.371872
-0.0389534
1.25684
-0.821996
-4.35615e-11
1.44775e-12
-8.86278e-06
3.55561e-05
-6.02626e-06
-7.12367e-06
-3.17698e-05
4.92642e-05
6.38029e-05
-1.27924
1.59115
-3.91627
5.50865
2.56399e-11
-8.73338e-12
-5.19594e-11
7.7916e-11
0.00090121
0.000575798
-0.000453509
5.60409e-05
-56.9862
13.1676
-17.3631
27.5967
-4.95957
7.00354
-6.53851
-0.884683
9.48753
9.042e-06
0.000111309
0.000186796
-7.48449e-05
2.42665
25.7572
2.55835
-2.45106
-7.54471
3.02368
1.83974e-10
-1.50238e-10
-6.76059e-11
1.84223e-10
-1.39511
-0.20522
0.655857
1.79577
-1.18273e-06
-1.04909e-06
5.18282e-06
1.32464e-06
-5.59983
18.3741
-11.6325
8.02201
3.85537
1.79122
-3.60272
-0.921099
-15.5828
12.9703
12.0582
6.86145
-7.60982
-13.4527
8.12416
19.8058
-2.87379e-09
3.49964e-08
-1.88341e-09
-7.64093e-09
0.00287071
-0.000952595
0.000543336
-0.000774251
-0.135575
-0.00956897
0.171506
0.0958736
0.145202
0.0130491
-0.0399641
-0.0413478
10.9234
-10.8159
-14.4559
30.1736
25.322
-18.6487
-8.82557
-14.0575
19.1781
-5.01532
-9.8091
8.812
7.98186
-27.1107
0.0200282
0.0186241
-0.00859324
-0.0102065
-43.5183
37.1013
17.705
2.21336e-09
1.22994e-11
-2.35452e-10
-5.22187e-10
3.1523
8.11511
15.6832
-2.13373
-8.12629
-8.87532
-5.01235
17.5469
6.40219
-0.608947
0.47976
4.10583
-2.84825
-0.686058
0.462158
0.22935
1.98111e-12
-5.06874e-11
2.58387e-11
2.07309e-12
14.328
-11.7708
-7.49995
9.7993
-5.42756
1.636
-1.21328
0.322857
-0.273837
0.302448
0.80069
-0.803494
3.6636
8.7471
-9.93602
-12.3504
6.03094
-12.3481
-7.66595
6.62454
-5.82503
28.7924
20.9197
-9.85556
0.0754851
0.003584
0.00466594
2.67543
-4.95282
-4.17245
5.21042
6.2379
-2.35171
2.40372
-15.5496
28.4124
3.23006e-11
-1.04854e-11
-2.33643e-11
-2.81752e-11
2.65027
0.554995
-16.9888
39.8213
-37.6343
12.4592
-36.4188
16.8641
6.18379
15.3564
-17.4506
-7.91504
22.4646
-20.5839
2.34206
41.0556
-16.4944
0.823962
1.3157
6.57503
-12.3276
26.3433
-3.86749
30.5505
-42.7023
-8.90772
15.1711
-19.5625
15.4073
-4.46401
0.907585
-5.94646
0.00165293
0.00682558
1.3e-05
5.38636
-5.36245
-2.97506
10.4141
6.85717
-80.4789
0.00219795
0.0147435
-0.00599711
17.2778
-2.61555
20.3201
-32.3467
0.000242798
0.000119183
-0.000182494
0.000196315
9.60354
-1.04409
13.1193
-10.3059
-5.23179e-11
1.59643e-10
-1.36946e-10
2.77573e-11
-5.23983
-17.3596
10.4118
29.643
8.67051e-11
1.0179e-10
2.0679e-10
-4.64373e-11
0.00292743
-0.0021795
-0.0107418
0.0277834
-7.9125
6.21498
4.53132
-3.50159e-05
0.000133602
0.000242207
-9.56896e-05
-0.0647808
-0.0477469
0.194895
-13.0385
18.8974
10.2998
-3.34389
54.5044
-103.812
72.2814
17.7479
-45.9505
4.49283
1.43363
0.118813
0.0361568
-0.0681395
-3.44997
-3.35052
3.08354
5.98826
-11.7619
19.6053
-47.9782
44.2316
9.20947
-7.94878
-10.0303
13.5662
-7.50798e-11
2.90921e-11
4.34262e-11
-12.4569
4.45671
-11.4641
12.2973
-21.1504
-14.3821
32.6148
4.67915
2.56251e-11
-5.54879e-11
1.84115e-10
-3.20383e-11
3.23179e-08
-1.01605e-08
5.46917e-09
-1.6295e-10
-4.33626e-05
-0.000108467
-0.00141424
0.00345358
-4.3928
-2.90032
-1.70957
9.35333
1.43722e-10
1.7967e-10
1.57174e-11
17.1605
-1.58349
-3.48522
-16.009
4.27573
-15.5719
26.7617
-1.09767
-4.26252
-5.20202
11.4897
-1.18431e-10
3.06563e-11
-5.38457e-11
10.4431
-13.067
6.94963
-14.9653
-34.5065
29.9935
53.9468
-43.2353
-1.35796e-10
7.60584e-11
4.51329e-10
-7.81116e-11
3.27478
-2.82626
-0.307346
-0.0757679
8.54654
-7.30547
6.50093
-5.39645e-11
3.04237e-11
2.81709e-11
-3.34394e-11
1.29945e-11
-5.88942e-11
-0.000489843
-8.38108e-05
0.00033828
0.00103125
4.64438e-05
0.000235805
-6.36169e-06
-6.37694e-05
-1.04668e-06
-1.98902e-07
4.01553e-06
2.98386e-07
-11.522
8.0761
11.3115
-4.55429
0.144337
-15.7667
-16.2014
38.3367
-6.63403e-11
4.57466e-12
-33.6908
17.0567
20.8381
8.93314
4.86378
-1.09829
-8.71928
-4.79077e-10
2.75093e-10
-1.99373e-10
2.01046e-09
-1.86971e-10
4.86137e-11
-4.17394e-11
1.22631e-10
2.7703e-11
2.18857e-11
-2.17177e-11
1.47593e-11
1.11771e-11
2.01808e-12
0.0359751
5.99685
-1.25197
0.349147
6.37646e-12
3.72389e-11
-3.16084e-11
1.10082e-10
0.000203143
0.000175791
-0.000155734
4.02333e-05
-2.06498e-11
1.25577e-09
-8.61047e-11
-3.10403e-10
2.86819e-11
2.522e-12
-8.22441e-12
4.03262e-11
-3.57327e-10
-6.57422e-11
1.36782e-09
-8.44387e-12
3.17355e-11
-2.84759e-11
1.36447e-10
17.4478
-0.165481
-24.0765
23.0383
4.83747
-29.3087
21.2819
3.24259
1.66334
0.0670669
-16.2378
21.1819
4.33337e-10
7.9703e-11
-2.22867e-10
2.99915e-10
6.48644e-12
-6.90372
-1.139
8.95253
-0.915004
-8.14635e-12
-1.06368e-11
-4.88415e-11
3.66923e-11
-17.6922
3.05079
3.00571
-1.55094
-1.82704
4.15251
-9.58596
4.319
1.80541e-10
-1.85457e-11
-1.61315e-10
-5.57956
-8.37043
21.0581
6.65305
10.4966
4.41282
-8.94696
-1.65077e-11
-5.05047e-11
-1.10075e-10
2.21859e-10
5.11223
-1.3539
-2.32025
-4.80187e-12
9.96421e-11
-2.98327
5.61715
-1.87301
-3.95085
-8.7758
7.3665
-11.8388
6.57407
13.7798
11.8023
-3.87377
-15.1485
-0.367041
0.00637216
-0.356476
0.747473
-10.2738
6.99485
5.9276
1.825
1.72902e-11
-3.07312e-12
1.2515e-10
5.04049
3.50548
-1.88019
0.413272
6.88041e-11
-6.00339e-11
3.45526e-11
9.30882e-12
1.02999e-10
-5.85317e-12
5.07021e-11
-0.0852989
2.70646
0.0840808
-1.54201
0.509249
-1.05696
0.212645
0.242064
12.828
-6.57732
-1.76125
18.3479
19.2221
-28.1914
7.63343e-10
-2.57506e-09
7.04105e-09
-1.6162
3.04131
17.9159
-24.4761
8.71301
-16.7589
23.118
9.92341
-10.0921
-5.34014e-11
8.3403e-11
1.12107e-11
3.5427e-11
-5.90898
5.76672
11.7995
-1.70135
1.77249
1.95537
-1.48987
2.07018
0.906477
-1.16831
-8.34968
-27.6227
-7.45822
14.7446
-2.25798
-14.0584
-0.631368
2.34422
0.601476
0.124626
-0.0133837
-0.208318
0.10037
-0.00817011
0.123629
-0.126278
0.00030049
-3.20664
5.54678
-2.97834
-2.77085
18.0104
-6.709
-0.813864
2.29299
0.309858
11.6479
-31.7898
-5.65042
21.4538
6.10865
-2.79041
3.8809
-5.09536e-05
-5.87527e-05
0.000221683
-24.904
1.45432
23.1869
4.13516e-06
1.3767e-06
-2.07419e-06
-1.6606
-0.911969
1.20085
2.34965
-8.73918
-1.96397
-2.18473
-16.6801
-19.4252
12.3682
33.0168
-1.95211e-09
1.02896e-08
-4.56334e-09
1.39592e-08
-5.38991
69.6786
-65.5779
0.00080762
-0.000962435
-0.000146971
0.00224555
54.3267
11.7875
-50.4252
23.6129
33.3041
-5.95362
11.3327
-15.9722
14.6765
-4.37192
-0.0600275
-0.191774
-0.055758
0.327541
-5.90334
2.51122
4.67491
1.29172
0.199389
0.127718
-0.203799
-0.258222
-28.1897
16.7123
2.73596
-1.20386
4.55149e-10
8.22829e-10
-2.28092e-10
-2.02366e-10
-13.3312
0.0794479
6.20676
5.50479
-1.8156
-0.600796
3.94107
0.267649
-1.34725
0.283198
0.812919
-5.28989e-09
-2.15767e-09
1.52197e-08
1.30619e-09
7.79331e-07
-3.23704e-07
-1.47269e-07
2.88582e-07
7.78961
27.3164
-11.3376
-25.9597
15.4309
-88.4983
65.5209
-14.722
-2.15242
13.847
3.11643
-13.5197
11.4182
-0.85329
15.8228
-1.39098
6.51905
15.8645
-24.6792
5.54321
-0.0167032
0.0901292
-0.0274701
42.4295
81.4785
-88.6276
-44.1481
10.3153
155.329
-95.79
-88.9494
1.05585e-05
-4.65226e-06
5.11436e-06
-4.16316e-09
-1.56164e-11
1.73451e-11
2.92854e-11
6.87866e-12
2.30854
1.65361
-6.42
2.76643
-7.60824
-10.0696
19.6854
80.9163
-37.2866
-9.95649e-12
-6.59076e-11
2.45942e-12
35.9584
8.88993
-0.373566
23.6818
-1.18224
-11.7792
-4.55053
-3.89736e-11
7.14595e-11
8.58565e-12
7.40023e-11
-4.73068
-6.29782
-3.13413
15.299
-3.99679
6.4936
-0.321731
8.89421
-0.80036
-1.6775
6.05605
-22.6513
17.606
-8.24225e-12
1.15565e-10
0.00138949
0.0364921
-0.0128661
1.55348
0.981341
-3.85854
2.12198
0.948589
-3.37248
-7.62979
5.41108
-7.44701
30.3147
-15.9691
7.30501
-11.9892
32.4827
-22.7485
7.32496e-11
6.1779e-11
-1.16977e-10
-2.94903e-11
-2.1048e-06
-8.09424e-06
-3.90104e-06
3.81799e-05
7.78275e-12
1.88625e-11
2.42744e-11
1.95331e-11
2.35462
1.02032
-3.56964
-1.14733
5.09968
-1.30811
-2.64881
1.07512
1.95844e-11
6.05368e-11
-3.59373e-11
9.13975e-11
-1.54572e-10
-32.3352
46.5115
13.7099
-21.4613
15.7896
-14.6754
9.82379
-7.15135
16.4919
13.8886
1.18337e-09
-3.35606e-10
-1.28818e-10
-20.0757
20.2084
-5.26153
4.23561
-5.12437e-11
-2.13935e-11
2.98708
-16.1021
10.4277
14.7843
-2.28554
-15.0236
-0.0241708
0.00478036
0.0569789
0.00388355
-25.7648
34.2193
-1.39251
3.42758
-10.9583
10.9956
4.62616
12.3253
1.46032e-11
1.3368e-11
2.41085e-11
0.778154
1.2483
10.8475
-9.18534
-20.7519
26.4751
6.41625
-11.2115
-14.5099
-42.0821
58.8127
26.3524
-12.7102
20.4425
-22.1499
4.53993
31.3455
-146.686
155.67
-45.6743
-0.00102817
-0.00151344
0.00551135
-87.7086
95.614
-9.70985
17.9795
6.48068
-1.30585
-0.704974
-4.09905
78.0899
-71.9548
-48.6617
52.6957
4.09757e-11
-1.35554e-10
1.87582e-11
4.61018e-11
2.33054
3.0293
-2.77252
1.19584e-10
-8.3814e-11
1.65329e-11
-6.48468e-11
-4.53875e-10
-1.67965e-10
-3.65966e-12
1.96601e-09
-6.57977e-10
3.38413e-09
1.08467e-10
-8.34473e-11
70.4246
-55.5002
-7.06013
-7.60998
-4.12396e-11
-1.39755e-10
4.12849
35.1494
4.87396
-9.31053e-07
-2.59496e-07
6.98315e-06
-1.0849e-06
-19.1497
20.4913
47.9493
-32.5212
3.31674e-11
1.43408e-10
-9.68803e-11
-9.43569e-12
7.81069
-38.691
15.5513
16.2678
3.68059
-17.7748
4.74404
-7.40048
-26.5677
-34.2782
50.49
14.8972
-4.72281e-05
0.000667978
-0.000221012
2.67901
0.336618
24.0023
4.36604e-06
1.0601e-07
-1.34135e-06
-2.27391e-07
39.8497
-58.2441
-173.661
205.703
-35.0109
42.1061
-26.0934
0.881655
-1.38497
0.255192
7.08206
-20.5555
12.4607
-0.937854
1.90951
-32.2639
0.24248
0.351851
-2.46077
3.77269
4.62047e-07
1.52508e-06
-6.30773e-07
-8.98357e-10
9.86241
6.86776
-18.4954
9.09098
-6.23114
-0.339822
3.55428
3.65255
8.66821e-11
-3.91613e-11
6.67976e-11
0.00944759
-0.00626219
0.0178212
-2.40382
-12.5404
19.8164
0.787485
0.0065111
0.00566909
-46.5088
4.95572
44.117
2.23697e-05
5.67303e-06
-8.52166e-06
9.74107e-07
-8.02358e-08
2.0192e-07
-1.8379e-08
1.0729e-08
-1.07108e-07
-9.62206e-08
6.14903e-07
-1.17069e-07
-0.426101
1.75194
-2.82452
-3.00063
-4.35477
8.99296
-3.12177e-07
2.39366e-06
-4.07657e-07
8.99209e-08
-6.75969e-11
-1.839e-11
3.05593e-11
1.16723e-11
-16.55
-80.1806
48.2668
47.8004
28.6094
-12.5588
-13.8909
-2.17858
-0.766942
-2.76468
-3.33962
4.03221
-16.5934
53.7485
-4.2533
-18.8922
5.51239
-0.376229
-2.24245
-0.80054
0.00065903
0.000412848
-0.000478767
14.0021
-10.6938
-0.655884
4.64097e-07
-6.67404e-05
0.00025694
-3.05931e-05
7.56469e-11
2.68362e-11
-7.71194e-11
-8.57472
-4.24961
14.3291
2.71616
3.36189e-08
-1.34813e-07
-5.3391e-07
2.0223e-06
0.0359292
-0.0283198
0.0295654
0.0133047
-0.532235
-4.0146
3.9308
0.576876
-16.6456
-0.63285
20.2807
-2.44925
3.35732e-11
-1.16623e-11
3.5277e-12
-2.68532e-11
-7.55167
18.9865
-10.1758
0.962553
-1.57712
1.34766
-0.711222
2.92322
9.08111
1.73608
4.58317
2.02451
-2.40087
-6.37586
36.5132
11.7416
-48.615
8.82083e-12
3.18249e-10
-6.99688e-11
5.47425
-10.7847
-15.9808
21.9645
0.635693
5.30684
-12.4876
4.03046
4.63967
-9.23997
9.62636
-0.795931
0.289423
1.48109
-0.715044
-4.32685
-2.79984
3.24267
0.0116637
-0.00872629
-0.0107507
0.0356557
-45.3366
-0.313161
15.7624
31.1613
2.43062
-1.04632
-0.343694
0.308482
-0.00211675
0.00268055
0.00934791
-0.00316448
2.58789
3.53461
-6.28454
10.1474
-3.22368
-16.3949
9.91043
-0.40296
-0.0978856
0.344578
0.153887
0.315486
-1.93336
0.416562
0.765352
-4.94384e-11
9.37745e-12
6.1756e-11
-1.17718e-11
-14.2826
-23.1269
6.38396
33.1126
-1.25407e-09
5.82494e-09
-1.77903e-09
2.64798e-09
0.0270752
-0.00141884
0.00442574
-0.0120796
1.27685
-11.0253
9.8947
-0.234214
0.127959
0.988907
-1.06767
-5.64492
-0.790542
-8.65562
2.55059
-12.8791
-4.8783
16.5799
-2.03692
-1.93137
4.25789
-4.98696
-0.267362
0.794618
-1.14042
0.343583
5.36122
-22.7233
14.2124
-1.41333
2.9231
-1.26545
1.42132
8.49672
6.24942
-5.41872
-4.96012
-10.943
-13.2631
14.3471
-2.15818
26.7222
-17.097
-13.6092
-1.6815
-5.4104
3.09931
1.15503
-0.989304
-4.53611e-11
-3.81242e-11
-8.59426
-0.673187
-18.1873
-0.250445
0.38384
-0.738392
15.9602
-12.7026
10.0127
15.7803
-6.53016
11.1301
8.30385e-06
4.85095e-05
-6.41998e-06
-4.11267
5.14873
1.94546e-09
-4.3388e-10
-3.0509e-10
3.55249e-10
4.04151e-09
-3.84588e-10
-4.08856e-10
-2.59613e-10
-9.65156
1.75728
-4.73124
7.12593e-11
2.60373e-11
-3.86914e-11
7.69785
-4.03438
-2.81737
2.28267
1.09732e-10
-3.0314e-11
-7.70522e-11
-30.126
6.76642
8.84009
12.0667
5.00446
-1.70911
-9.87705
-2.69631
7.54556
5.3449
0.890546
18.9905
-9.81375
18.4124
-4.59972
0.495374
3.31224
-6.46446
0.209194
-0.0149731
-0.0269872
-0.0353308
-28.113
25.3971
19.4966
-14.9041
-17.2467
-2.61105
20.1136
2.49618
-12.2589
28.5003
11.8381
-28.483
-8.47603
26.9398
-19.7187
0.145269
1.95257e-09
3.45911e-09
-1.01948e-09
-3.32146
-1.32406
2.01098
9.59619
17.2086
10.7262
34.7119
-19.9112
4.88018
-8.21768
43.2301
-23.8632
-15.5115
-36.8209
6.64246
-24.6792
7.21855
10.0319
23.5285
-43.6211
-17.0639
18.3414
-1.01074e-11
3.08372e-11
2.16677e-11
8.34922
-11.4854
0.0509003
0.0397851
-0.0141768
-0.0284472
9.27908e-11
1.88904e-10
-7.40478e-11
-1.43662e-10
-4.63884e-05
0.0016799
-0.000673336
0.000327438
1.38806
10.3148
-7.23906
-4.48643
-0.329734
14.2623
9.47116
-2.92186e-05
-0.000494238
0.00107948
16.4546
10.0469
-13.8325
-15.5581
-10.7385
3.51784
4.51296
-8.93558
-4.81179
40.4103
-12.0949
8.91995
-32.5076
5.37436e-11
-1.08992e-11
-4.72099e-11
2.39565e-11
15.2006
-0.0474964
-11.0538
-4.04962
5.87055
4.46518
-6.51466
-3.41302e-10
5.5816e-09
-8.72149e-10
-7.86871e-10
-3.33389e-10
7.96663e-10
3.24534e-09
0.0261612
-0.264513
-1.75852
1.56006
-0.769486
10.0564
-2.34081
-5.9343
11.5275
-8.48879
-5.39186
4.5424
-9.11653
1.45102e-11
-8.21807e-11
1.28206e-10
-1.07338e-12
-11.232
12.4776
32.8828
7.21159
33.9625
-12.0999
-19.893
-31.0362
4.78635
-2.03417
33.0739
8.88546
-9.9049
2.70408
-16.5026
33.5254
0.0592213
-13.4049
-2.97061
6.66192
-0.060219
0.156898
-0.0235982
0.0222734
7.38974e-11
3.32045e-11
-6.17129e-11
0.681624
-1.40176
0.127309
0.744289
-0.211235
-0.104414
1.38568
-0.941691
0.229138
-16.4338
15.3717
2.93467
3.52254
1.26622e-10
1.57208e-11
-3.94984
23.1136
-21.4681
5.17285
3.68427e-09
-6.88562e-10
1.11391e-09
-5.02956e-10
-24.101
19.3901
14.6181
-13.7823
-8.80582
-25.1871
8.24646
30.6591
22.4335
4.52553
-29.5845
-13.3739
-37.3667
-10.5465
18.6766
14.1745
10.3586
6.27102
-14.393
0.000974491
-0.000497912
0.000127847
-5.08366e-05
2.66612
0.122497
-1.01058
-0.999176
-1.85776e-11
3.9161e-13
9.16051e-11
11.0823
-11.7362
10.4037
9.161
20.2771
1.5535
-42.6334
-2.88325
2.21256
2.22007
-0.938168
0.00100018
-0.000202569
0.000144863
-0.000174011
-11.257
10.0387
-5.71253
1.47528
-14.7687
-0.550944
0.631083
0.3526
-12.7202
-11.301
13.6403
-0.165886
-1.61885
13.1784
-4.84505
-2.42649
13.1793
-5.59382
-3.01736e-05
6.2116e-06
-8.08205e-06
7.78585e-05
55.9341
10.2448
-7.28495
-44.4784
11.1895
9.57679
-8.85045
-7.90609
-0.660606
-1.40463
1.94902
1.38159
-22.2373
22.1447
-13.2079
4.65955
15.4449
-22.0846
8.13559
-2.05568
2.50151
1.39998
-0.916294
16.9715
-114.603
-10.4356
23.5394
-7.96682
18.5872
0.612135
-2.55595
-0.970153
-42.0488
3.90451
43.1855
2.21294e-11
1.91979e-11
-2.12291e-11
-3.1579
-4.52906
4.6713
13.9887
-3.45787
-2.39487
-0.996261
1.69251
-1.99891
3.24177
-2.08661
41.0745
-30.9033
-8.51228
-0.000386461
-0.000433136
4.50869e-05
0.00192304
-19.0492
9.4551
10.9383
4.55174
14.0301
-18.2925
-7.66754
2.58512
3.74063
28.3052
-34.3843
6.6273
-26.3961
28.577
-4.0804
-0.0188866
-0.00560482
0.0552093
-0.000335746
-15.4412
18.1967
4.39451
10.9881
2.83487
5.01352
-12.2994
3.58803
9.44384
5.20724
9.97616
-22.3232
7.35205
-3.98392
-2.72198
16.2388
5.90829
9.18734
30.2923
-25.6085
33.2159
-1.24134
-34.082
-0.441706
20.1756
0.123016
-2.59508
-3.48582
6.01775
9.02717
-1.65905
2.34906
4.19496
-14.3353
33.3937
-12.2118
2.14379
5.01963e-06
0.00115846
-0.000490388
14.5438
-4.49489
-11.2472
5.60636
-0.774641
-2.02778
-0.282708
2.19811
28.9449
-21.6954
-11.9707
4.73478
-3.78989
11.3247
-11.1235
5.74114
4.62986
-12.15
3.02905
8.09702e-11
-2.60147e-11
-5.90539e-11
2.47622e-11
-0.206713
-0.164377
0.788105
-0.0452444
15.6159
-17.0095
15.9347
2.90562
3.84552e-11
-0.0735567
0.188087
-0.107012
0.927579
-3.24867
-0.257895
4.7773
34.5569
-26.3746
4.84259e-07
5.9873e-08
1.33554e-07
-1.63686e-07
21.9456
-82.2849
27.6455
9.93294
17.1059
-12.8608
-7.74809
-73.4771
-12.3516
72.3451
26.3012
11.8273
3.1516
16.0365
-4.81452
17.7487
-3.98243
-7.71134
-4.12816
-3.25165
1.7126
4.34885
-2.58547
4.85102
-0.965463
-3.4564
17.0813
-10.8223
10.1911
-19.1811
-20.8028
-31.9527
29.6037
4.25
-1.14412e-08
-1.01697e-08
4.75355e-08
4.89745e-11
0.706946
0.35118
-22.3992
18.1694
45.8576
-25.3717
-18.4359
1.81565e-10
-3.03834e-11
-2.46261e-10
5.1955e-11
6.09079
-3.3069
-0.983266
2.82873
6.91222e-13
5.03666e-11
2.41517e-11
-2.99e-11
6.97682e-11
-0.886295
0.352421
-0.919877