/*--------------------------------*- C++ -*----------------------------------*\
| =========                 |                                                 |
| \\      /  F ield         | OpenFOAM: The Open Source CFD Toolbox           |
|  \\    /   O peration     | Version:  2312                                  |
|   \\  /    A nd           | Website:  www.openfoam.com                      |
|    \\/     M anipulation  |                                                 |
\*---------------------------------------------------------------------------*/
FoamFile
{
    version     2.0;
    format      ascii;
    arch        "LSB;label=32;scalar=64";
    class       volVectorField;
    location    "0.4";
    object      U;
}
// * * * * * * * * * * * * * * * * * * * * * * * * * * * * * * * * * * * * * //

dimensions      [0 1 -1 0 0 0 0];

internalField   nonuniform List<vector> 
32842
(
(0.168859 0.440665 -0.101715)
(0.422307 -0.253434 -0.247097)
(-1.12203e-05 -1.6522e-05 -5.4542e-05)
(-5.97584e-06 2.91178e-05 -9.53021e-05)
(5.83901e-13 9.11236e-13 6.74265e-13)
(0.00192782 -0.000127581 -0.00856598)
(2.0361 20.2182 -14.3322)
(3.10143 -13.2936 -5.52104)
(-4.27591e-13 -1.15503e-12 3.67309e-13)
(0.000328739 -0.0174788 -0.0635333)
(3.81278 26.5282 -1.16488)
(4.77283 -16.6064 3.55995)
(0.050835 -0.0767606 -0.106671)
(1.68459e-13 -1.41223e-12 -3.16823e-13)
(5.07943e-13 4.05803e-13 -1.06628e-12)
(-0.0614042 -0.278737 -0.211821)
(0.0741202 -0.0370699 -0.348503)
(0.00820189 -0.0024745 -0.0111201)
(-0.10181 0.0788738 -0.123065)
(-1.55199e-13 2.14074e-12 -6.99688e-13)
(6.30711e-13 -9.60787e-13 8.64622e-14)
(-0.147987 -0.0231924 -0.385047)
(4.79614e-09 -9.36457e-09 -4.96417e-08)
(-7.27868e-13 1.44781e-12 -1.28631e-12)
(0.139617 -0.0736808 -0.321506)
(7.34112e-05 3.36339e-05 -0.000125124)
(0.000655445 -5.49413e-05 -0.00278152)
(8.15292e-13 -1.05054e-12 -1.79174e-12)
(9.32305 -0.362694 1.32627)
(-0.0370977 0.156333 -0.331371)
(4.87519 -2.91016 3.64246)
(1.60615e-12 1.26941e-12 1.63267e-12)
(2.61494 -19.1933 -0.716372)
(-0.150239 0.0634005 -0.29143)
(2.29897 -21.0613 -4.90542)
(0.0714587 -2.61854 -2.30264)
(-0.0555159 -0.0115927 -0.0595995)
(-0.0875696 -0.0572023 -0.200556)
(0.0563591 -0.0262644 0.0481245)
(-0.0202192 0.248169 -0.0278673)
(0.000118377 -0.000188232 -0.00142143)
(-1.38992e-06 2.60082e-07 -8.3496e-06)
(3.34979e-07 -6.77176e-08 -4.08438e-07)
(5.15763e-11 1.07861e-11 -8.42551e-11)
(0.01463 0.251571 -0.05222)
(-0.00304821 0.10694 -0.507841)
(-3.76184 1.51817 -0.343863)
(-0.042642 -0.102023 -0.338417)
(-4.41152e-11 1.59632e-10 -1.55e-09)
(-10.7553 2.5218 -1.20639)
(0.111361 -24.1892 0.972631)
(3.73927e-09 3.48663e-08 -7.87743e-08)
(0.159398 -0.0324741 -0.43423)
(-0.605375 -1.14079 0.0706562)
(-4.99261e-08 -4.65708e-08 -2.77309e-07)
(0.69061 0.843994 -0.302118)
(1.0889e-05 4.91949e-05 -0.000212701)
(4.66898 10.0136 -1.59062)
(1.56587e-12 2.42259e-13 -6.70533e-12)
(-5.97701e-12 2.71916e-12 -1.82527e-11)
(-16.327 -4.58451 5.10851)
(0.0939403 0.0522221 -0.409952)
(-3.61191e-10 5.2048e-10 -1.89661e-09)
(-9.30343e-14 -5.33003e-13 -1.66856e-12)
(0.0834244 0.00528175 0.161956)
(-8.74734 -0.367787 -4.02188)
(-4.24235e-07 -1.46999e-07 -7.89465e-07)
(-0.0174074 0.121092 -0.330356)
(8.05026e-13 -9.47435e-13 5.30452e-13)
(0.0251307 0.508057 -0.275527)
(-1.05189e-12 1.26593e-12 -2.88314e-12)
(0.140446 0.00126431 -0.661702)
(-6.73947e-11 -5.14585e-11 -1.62091e-10)
(-6.01126e-13 -9.78174e-14 -1.10228e-14)
(-1.30252e-07 4.92053e-07 -8.16035e-06)
(-0.130624 -0.282724 -0.407873)
(10.5174 -2.29934 1.59344)
(2.97062e-06 -9.1025e-07 -1.06556e-05)
(0.00171337 -0.0721685 -0.232626)
(-0.304228 -1.8254 0.502367)
(4.25024e-06 2.90369e-06 -7.26642e-06)
(2.28005e-06 2.65333e-06 -3.04523e-05)
(3.54328e-06 -3.41502e-08 -2.07964e-05)
(7.33173e-13 7.41296e-13 4.39145e-13)
(5.07308e-09 -3.29933e-08 -5.66976e-08)
(5.13292e-07 1.59336e-06 -3.06918e-06)
(2.36527e-08 4.9724e-07 -5.456e-06)
(0.290207 0.299991 -0.789248)
(1.20981 -7.34304 3.5476)
(0.00404811 0.0135574 -0.0677436)
(-0.0543973 -0.04611 -0.321944)
(-0.000102933 0.000246858 -0.0005871)
(-3.02501 1.09646 -0.700422)
(-5.54352e-13 6.15316e-13 -1.2131e-12)
(5.00926e-05 1.02945e-05 -0.000302794)
(0.0943404 0.295031 -0.224727)
(0.0277864 -0.129109 -0.237496)
(-1.04618e-12 3.43327e-13 -1.59283e-12)
(1.60986e-12 3.33183e-14 4.74387e-13)
(-1.71134e-12 1.70268e-12 1.1512e-12)
(-7.12625e-13 -9.08932e-13 9.61296e-13)
(-0.0674713 0.0279998 -0.0589831)
(-0.215193 0.0924248 -0.155293)
(-0.0133587 0.322973 -0.917678)
(-0.111396 -0.100093 -0.226151)
(-0.0684715 0.00576616 -0.00662292)
(-2.71709 11.5435 1.64194)
(-0.28261 1.03449 0.713196)
(-0.237657 -0.0901998 -0.0728941)
(-0.225443 0.557363 0.283163)
(0.0271123 0.000581597 -0.026275)
(0.0139961 -0.0323276 -0.142915)
(1.47717 -4.92051 -7.04191)
(0.000490602 0.00147101 -0.0392532)
(0.168419 0.368186 -0.59476)
(7.10548e-13 -4.25796e-13 -6.80004e-13)
(-1.14931e-12 3.6533e-13 2.45762e-12)
(-0.680153 0.330736 0.192092)
(0.790576 0.159699 -0.32753)
(0.366202 -0.25917 -0.238534)
(-0.023759 0.0811399 -0.17861)
(-0.0121753 -0.0313004 -0.0584474)
(-2.67368 15.3423 -1.11282)
(5.58465e-05 -1.42302e-05 -0.000151539)
(0.398365 -0.448185 -0.208773)
(0.000629889 -0.000104798 -0.0018841)
(-0.0621596 0.164744 -0.0784947)
(0.033914 -0.0566172 -0.210493)
(0.246592 4.46177 -1.37316)
(2.32483e-05 -3.62565e-05 -8.31475e-05)
(8.47569e-07 4.26596e-06 -3.92035e-05)
(-0.488181 -0.42784 -0.435815)
(0.0572565 0.0291903 -0.0998761)
(0.0108894 0.0386275 -0.0952341)
(-0.0255688 -0.0795484 -0.285952)
(-0.199416 -0.0366551 -0.15316)
(-0.961166 -1.1769 0.732877)
(1.35292 2.95652 -1.03242)
(-0.0137193 0.284153 -0.123662)
(0.0287466 -0.0264886 -0.133221)
(0.0546989 0.00387353 -0.15216)
(0.0917979 0.0541686 -0.365587)
(3.11559e-13 4.24741e-13 1.18193e-12)
(-0.606263 -1.58947 -0.147036)
(0.108604 -0.0193893 -0.174359)
(-0.111116 -0.0615199 -0.267639)
(19.1807 3.02498 3.78854)
(-0.146077 -0.0821649 -0.286217)
(2.57688e-13 7.04061e-13 -4.51525e-14)
(0.00439296 0.05612 -0.172986)
(-0.502861 0.606307 -0.677806)
(-0.24034 0.168098 -0.463554)
(0.019092 -0.0570278 -0.281627)
(2.68205 2.92087 -0.231351)
(-0.236429 -0.0258385 -0.0312789)
(5.96947e-08 4.45569e-07 -1.28242e-06)
(-2.04963e-06 -9.63993e-07 -4.33352e-05)
(-0.171788 0.122368 -0.290813)
(-0.0418878 -0.121394 -0.158001)
(0.0104692 -0.00803902 -0.0424352)
(0.119881 -0.247084 -0.000679714)
(-2.78938e-06 2.84324e-06 -1.33716e-05)
(5.56185e-13 1.77439e-12 -1.22046e-12)
(1.76562e-06 4.36279e-06 -7.28842e-06)
(-0.126107 0.293113 -0.201427)
(-0.0210242 0.0449256 -0.264907)
(-1.61283e-06 -1.90413e-06 -1.11462e-05)
(-0.0522976 0.0864955 -0.20605)
(-0.231979 -0.0221999 -0.26587)
(13.2957 1.93288 2.00424)
(-0.0278233 -0.586557 0.312676)
(-0.184782 0.0685632 0.119188)
(-0.0457925 -0.144283 -0.139308)
(-1.41958e-11 6.63725e-11 -1.11767e-10)
(-1.51152e-06 2.17652e-06 -6.6838e-06)
(0.334756 -0.401227 -1.94252)
(-0.0249607 0.123859 -0.425252)
(-0.218728 -0.154173 -0.33231)
(1.02629e-07 5.04661e-08 -2.22002e-07)
(-0.0255584 0.00414938 -0.128457)
(0.11634 -0.00653316 -0.0561172)
(-0.00994676 0.0752394 -0.333189)
(0.0379421 -0.0719021 -0.247311)
(2.77208e-05 -0.000220062 -0.00116408)
(1.73197e-12 -2.48939e-12 -3.23792e-13)
(0.0413548 -0.0516625 -0.257174)
(-0.12994 0.0351522 -0.142567)
(-0.124224 -0.00180559 -0.340326)
(-0.27158 -0.132419 -0.0983372)
(0.0268773 0.0664298 -0.555438)
(-0.0826346 0.180988 -0.298566)
(0.701668 0.214372 0.116741)
(-4.33556e-07 -1.29766e-06 -5.29191e-06)
(1.47877e-07 2.96129e-07 -7.80481e-06)
(7.53686e-13 4.86854e-13 1.46187e-12)
(-0.0400191 0.0532494 0.0407431)
(-0.0926008 -0.0572511 -0.324136)
(-0.0749304 0.0917926 0.0510216)
(0.0002158 7.06101e-05 -0.00035462)
(-0.0825572 -0.0503769 -0.286413)
(0.27953 -0.0709464 -0.281097)
(-0.0325898 0.0519884 -0.0740704)
(-0.724151 0.817278 -0.366631)
(-0.747184 -1.41332 -1.50514)
(2.5 12.6551 -2.82966)
(-0.322165 -0.0911113 -0.518982)
(-0.0024099 -0.249401 -0.154243)
(-6.5388e-06 1.47867e-05 -5.25344e-05)
(4.86923e-05 0.000118064 -0.000199936)
(0.248162 -0.00736663 -0.0522115)
(0.100855 0.1359 -0.0197101)
(0.0493942 -0.265532 -0.0911948)
(0.599051 -0.474439 -1.25101)
(0.160894 -0.271674 -0.746703)
(0.0960686 -0.0741418 -0.368057)
(6.01735e-10 -1.72596e-10 -1.10389e-09)
(0.0311195 0.149598 -0.0614209)
(0.101499 0.101699 0.0282717)
(0.125609 0.191577 -0.00412297)
(0.043537 -0.279148 -0.0865157)
(0.625015 0.999755 -0.474701)
(-0.000259696 0.00021467 -0.00052473)
(-0.000274669 0.00883052 -0.0372064)
(0.20862 0.186898 -0.047588)
(-0.118008 -0.141096 0.0172081)
(-0.00824172 -0.261598 -0.284954)
(5.28509e-13 1.27438e-12 5.40453e-13)
(6.61192e-13 1.01139e-12 -1.50132e-12)
(0.177507 0.0277317 -0.155896)
(0.165682 -5.77533 0.454916)
(-0.019168 0.0365699 -0.0828694)
(0.0308653 0.00179582 -0.0998883)
(-0.0514935 -0.0349591 -0.0609816)
(5.13673e-05 -9.51534e-05 -0.000418183)
(-0.667844 -1.87203 1.25706)
(-6.27417e-06 0.00218787 -0.018451)
(-0.00067454 0.0081755 -0.0230575)
(-0.54835 -0.268038 0.19714)
(0.0972203 0.064389 -0.0585848)
(9.49747e-13 1.32464e-12 -3.94739e-13)
(-0.677921 16.3295 1.45752)
(0.00207494 -0.0156018 -0.11369)
(0.172771 0.105749 0.0476718)
(3.44187 0.582336 -0.144692)
(-0.00601526 0.0402618 -0.0910402)
(0.0638218 0.0256771 0.170465)
(1.57103e-09 8.44747e-10 -4.85975e-09)
(-0.000296612 -7.16215e-05 -0.00217937)
(-0.000495328 0.0014473 -0.00202498)
(0.0298587 0.0341171 -0.314633)
(6.43992e-13 -6.14623e-13 -4.22202e-13)
(0.000654037 0.000291404 -0.00438637)
(0.102836 0.274463 -0.0901946)
(0.0256464 -0.0262375 -0.374121)
(0.146851 0.116925 -0.0593481)
(0.000967627 0.000663202 -0.00832666)
(0.0550505 -0.00912718 -0.128383)
(0.30928 -0.310346 -1.25919)
(0.0302144 0.0994696 -0.281716)
(0.00112073 -0.0478694 -0.304543)
(0.00453871 0.00203451 -0.00972419)
(3.21526e-08 2.67148e-08 -1.41351e-07)
(-4.10452e-13 1.04029e-12 5.66238e-13)
(0.000269722 -0.000345084 -0.00207439)
(-0.00128742 0.00106433 -0.0065108)
(-0.000823365 0.00191625 -0.00450883)
(-0.0143502 -0.00180737 -0.0520971)
(0.135859 0.130982 -0.300267)
(-0.0906346 0.151487 0.0384206)
(-2.54695e-12 5.21792e-12 -7.53221e-12)
(-0.000889156 0.00674649 -0.0286968)
(-0.000582503 -4.56039e-05 -0.00218814)
(-0.00530457 0.00226862 -0.0223119)
(0.0777864 -0.0430113 -0.335533)
(-0.0036668 0.000917701 -0.00707652)
(-0.383893 -0.793273 -1.22735)
(0.212622 0.0545053 -0.0655726)
(0.00659174 -0.0394393 -0.416711)
(-5.64636e-05 -0.000131114 -0.000371979)
(-0.0379585 -0.168736 0.0655093)
(-0.00541718 0.00495537 -0.0359978)
(1.42624 -0.218986 -1.24073)
(6.11755 -1.28679 -1.11445)
(-6.46476e-08 -5.868e-08 -1.28756e-07)
(-0.0023227 0.278836 -0.0843716)
(-0.237993 -0.597274 -0.235766)
(1.58769 -0.12729 -2.38805)
(5.94342e-13 6.63834e-13 -4.74751e-13)
(0.000779752 0.000409586 -0.00887651)
(-5.94908e-07 2.1827e-06 -1.31212e-06)
(12.5266 0.889666 1.14564)
(1.99645e-12 -8.74619e-13 -3.90243e-13)
(2.12278e-06 1.20703e-06 -4.62157e-06)
(-0.154976 2.50536 -0.36646)
(-2.14048 14.4607 0.677622)
(-0.225038 -0.487958 -0.634333)
(2.33896e-06 -4.83704e-06 -1.17773e-05)
(-0.0391964 -0.0445671 -0.157689)
(0.0850628 0.160118 -0.200336)
(-1.04746e-13 -2.43652e-13 -1.21842e-12)
(-54.0668 57.4105 -25.8359)
(-0.00989911 0.00285874 -0.0401792)
(0.00587049 0.0825309 -0.375432)
(-0.0461893 -0.028463 -0.285599)
(3.33747e-06 -2.83537e-07 -3.65217e-05)
(-3.66752e-13 -8.78435e-13 1.08572e-12)
(-2.84672e-13 8.4654e-13 -8.7916e-13)
(-5.148e-09 4.91808e-09 -1.62282e-08)
(-0.0228353 -0.151968 0.0042866)
(0.067611 -0.0273179 -0.133562)
(-0.0261958 0.00481587 -0.327278)
(-3.8926e-13 7.08685e-14 -2.38787e-13)
(-2.07664e-12 -1.68254e-12 -5.65877e-12)
(-0.0745603 -0.045484 -0.198687)
(-7.11971e-10 -4.52096e-10 -3.13821e-09)
(-0.0634216 -0.0681989 -0.252538)
(0.104805 0.125495 0.0286396)
(1.55117 0.108163 -2.68796)
(0.00129348 0.133714 -0.223565)
(-0.0743582 0.126133 -0.393715)
(0.137915 0.0503898 -0.0574002)
(-1.76405 -7.14874 -0.539222)
(-0.109912 -0.0616688 -0.297421)
(1.02178e-12 -2.60774e-12 -5.74885e-13)
(2.0709e-12 6.33406e-13 -1.94923e-12)
(-0.0706437 0.00939033 -0.312815)
(0.13931 0.134372 -0.130837)
(-3.54512e-08 -5.542e-08 -8.91297e-08)
(0.0607727 0.0869451 0.0262633)
(-6.99086e-08 5.81472e-08 -2.06078e-07)
(0.10498 0.020725 0.00334534)
(1.13867e-12 2.9648e-13 1.09984e-12)
(-2.2041e-07 8.62367e-07 -2.36951e-06)
(3.29168e-13 -5.36884e-13 6.03759e-13)
(-0.0217908 0.11491 -0.229507)
(-4.92473e-05 -1.38746e-05 -0.000192408)
(-1.22437e-09 -1.81822e-09 -3.80608e-09)
(8.30473e-13 7.41662e-13 -1.86742e-12)
(7.35475e-13 1.5025e-12 2.58631e-13)
(0.0644755 0.0473218 -0.291463)
(0.0926736 -0.188235 -0.169292)
(0.276353 -0.0340036 -0.0468691)
(0.693363 -0.511896 0.98736)
(2.79586e-07 -9.02062e-07 -3.21993e-06)
(3.32163e-13 6.212e-13 -1.23513e-12)
(-2.95629e-09 -5.02998e-09 -1.30618e-08)
(9.55188e-05 8.64092e-05 -0.000182477)
(1.84339e-12 4.72642e-13 5.91764e-14)
(4.08988e-13 -3.15469e-13 3.81017e-13)
(7.32777e-13 -1.09978e-12 2.16545e-13)
(-0.312421 -0.0308913 -0.169047)
(0.731505 1.33761 -0.715933)
(-0.0693233 -0.0636981 -0.126111)
(7.99775e-13 -6.11594e-13 -1.87436e-13)
(0.0185197 -0.0229239 -0.0425523)
(-0.0799187 -0.125208 -0.366762)
(0.202921 -0.198685 -0.504562)
(0.0652196 0.212786 0.0100646)
(-0.00483299 -0.0257998 -0.147923)
(0.0329255 0.0912305 0.0424728)
(-4.55197e-13 -4.07957e-13 -8.13016e-14)
(5.9539e-09 -1.51513e-08 -5.17342e-08)
(0.0549703 -0.0429696 -0.132443)
(-1.23576 15.5669 -2.2563)
(0.00140736 0.000457326 -0.0123295)
(2.69895e-13 -1.12609e-12 1.60165e-12)
(2.60313e-08 6.59623e-08 -1.53702e-07)
(1.90341e-07 -2.30233e-09 -4.62465e-07)
(0.0951702 -0.803121 -0.806335)
(-1.36194e-13 -3.93943e-13 7.27463e-14)
(-4.06492e-06 -2.71775e-06 -4.97205e-06)
(16.2187 -13.3581 6.27025)
(0.0472568 -0.024745 -0.172712)
(-0.132118 0.12411 -0.191538)
(8.3044e-08 -2.95064e-07 -9.99898e-07)
(0.127254 -0.0650435 -0.162533)
(0.0203157 0.115853 0.0129368)
(-3.27151e-13 -1.98574e-14 -2.63141e-12)
(-0.012547 1.29125 -0.313067)
(5.23445e-08 9.82776e-09 -3.99739e-08)
(-0.109342 -0.231922 -0.227588)
(-0.00436572 0.030938 -0.0427644)
(0.134376 0.273307 -0.0144692)
(-0.0142255 0.0786416 -0.212993)
(0.157813 0.0217646 -0.0768533)
(-9.12627e-11 4.98925e-11 -2.50424e-10)
(-1.08458e-06 6.78604e-06 -2.72586e-05)
(-0.000132031 -0.000763068 -0.00194787)
(5.46107e-05 0.000180638 -0.00150518)
(0.051473 0.0618999 -0.256228)
(0.0389431 0.0855435 -0.182033)
(-0.122118 -0.0686416 -0.160545)
(-0.027042 -0.0105304 -0.276723)
(-7.38127e-05 -9.77547e-06 -0.000272256)
(-0.200269 0.132695 -0.263121)
(4.21005e-12 2.1015e-12 -2.00759e-11)
(0.055302 -0.0842624 0.104886)
(0.237955 -0.0224955 0.0095917)
(0.162645 0.0328275 -0.125603)
(-0.282308 0.163719 -0.069321)
(-0.556919 -2.19158 -4.91301)
(-3.52103e-13 1.09252e-13 -3.3198e-13)
(-0.281206 -0.0744904 -0.16069)
(0.0821446 0.0840252 -0.0859268)
(0.558384 -1.28185 -1.66306)
(0.0960456 0.027724 -0.12909)
(-0.0540355 0.0395608 -0.160776)
(0.159961 -0.0661149 -0.292242)
(-3.29832e-05 0.000240331 -0.000418243)
(-0.153653 0.0831417 0.00495746)
(-0.080274 0.0881348 0.0932189)
(0.128695 0.00649115 -0.156719)
(7.69328e-13 -8.52945e-13 -6.74334e-13)
(-0.156905 0.0485679 -0.116676)
(-0.0470846 -0.178707 -0.269448)
(-0.22152 -0.286117 0.0958878)
(0.168926 0.150466 0.21487)
(0.172526 -0.328727 -0.125114)
(-0.0804331 0.0993685 -0.13624)
(9.18057 -3.17509 -0.245645)
(-0.272303 -0.0777142 -0.261707)
(-0.00109454 0.0561203 -0.0430651)
(-1.95992e-05 1.69188e-05 -4.46907e-05)
(0.00195546 0.00571786 -0.121866)
(24.5821 -7.14131 1.83417)
(-5.31055e-05 2.78992e-05 -0.000101739)
(0.0204984 0.0653061 -0.389558)
(-8.6909e-07 -6.91507e-07 -2.64022e-06)
(-0.250394 -0.0635007 -0.0408205)
(1.11947e-13 -1.52039e-12 -2.56443e-12)
(0.225814 -0.148629 -0.246432)
(-1.85302e-13 8.91512e-13 2.03121e-13)
(8.56075e-05 -2.89799e-05 -0.000303087)
(-0.0594244 0.020515 -0.147329)
(3.84359e-08 5.97351e-07 -1.65481e-06)
(-0.000280272 -0.000257014 -0.00131302)
(0.0484332 0.265841 0.00788298)
(12.3688 -1.84402 -3.61441)
(-0.120567 10.6153 -2.28078)
(0.000778917 0.000594622 -0.00176124)
(-0.0165583 0.030841 -0.100918)
(-14.7849 0.397484 -1.07417)
(-0.151338 -0.103286 0.0148165)
(1.81513e-12 1.66829e-12 2.9671e-13)
(-0.0171347 0.00622737 -0.150696)
(-0.180299 0.379702 -0.209841)
(9.18142e-13 -6.39882e-13 -2.20356e-12)
(-1.29925e-10 -3.12689e-11 -1.61044e-10)
(-3.86517e-06 3.55386e-06 -2.58167e-05)
(-0.388081 1.25016 -0.927575)
(2.15743e-12 5.77565e-13 -1.60416e-12)
(0.0428841 -0.0644495 -0.261489)
(-0.204527 -0.037579 -0.145318)
(0.351447 5.98163 -2.69498)
(-2.3099e-13 6.56822e-14 -1.50316e-12)
(-0.210919 -0.0676119 -0.229907)
(0.364427 0.321523 -0.510508)
(-4.83724e-13 6.42818e-13 -4.04692e-12)
(0.00917077 0.0453981 -0.123253)
(0.0688757 0.250786 0.0654936)
(2.01202e-13 1.19966e-12 -3.73572e-13)
(-1.07285e-12 -1.92378e-12 5.22835e-13)
(2.67094e-06 -1.94704e-06 -1.14981e-05)
(1.19092e-07 1.52994e-07 -8.2803e-07)
(3.81046e-10 -5.43837e-09 -2.07122e-08)
(0.192149 0.197418 -0.148719)
(-0.0796068 0.00996286 -0.354458)
(1.19142e-12 1.46015e-13 -6.69875e-13)
(-0.0372811 0.0939394 -0.289488)
(0.900922 0.617932 -0.127231)
(-5.04191e-13 7.30499e-13 -9.03596e-12)
(-1.12481e-12 -3.83989e-13 -5.16847e-12)
(1.69455e-12 -9.08149e-13 5.08818e-13)
(6.15563e-13 -8.49497e-15 -3.44255e-13)
(0.0425566 0.000829713 -0.0321662)
(-1.04422e-12 1.63778e-13 6.49698e-13)
(1.52524e-12 4.60291e-13 -4.50634e-13)
(1.39332e-06 9.49618e-07 -3.0009e-06)
(-4.40044e-12 2.55642e-12 -8.47863e-12)
(-9.13149e-13 8.7578e-13 -1.49896e-13)
(3.94856e-12 -4.10181e-13 -9.42995e-12)
(-2.38878e-13 1.03385e-13 -1.76861e-12)
(0.0472382 0.149056 -0.351588)
(-3.02321 -0.577332 1.35405)
(5.29908e-13 1.13374e-12 -7.70581e-13)
(0.0238165 0.0695053 -0.327256)
(7.77854e-13 1.30979e-12 -3.58152e-12)
(-7.37437e-13 -3.69666e-13 -1.8498e-12)
(0.216696 0.0383563 -0.306509)
(-4.7446e-13 -1.27919e-12 6.3111e-13)
(-0.0977877 0.00647445 -0.0734105)
(0.00771062 0.427951 -0.402202)
(1.32145e-12 -9.39442e-13 -3.77013e-13)
(-0.321249 -0.257368 -0.28167)
(-0.124418 -0.113082 -0.0635233)
(1.04013e-12 -1.14644e-12 -2.00745e-12)
(-0.0419641 0.0251011 -0.0974633)
(-5.20479e-13 -2.04175e-12 -1.55228e-12)
(0.891517 0.487318 -0.151569)
(-0.0063564 -0.0572122 -0.0926421)
(-0.159808 -0.0383912 -0.275804)
(0.732798 0.0097784 -0.6847)
(-0.308919 -0.223704 -0.0572779)
(1.11981e-12 -2.37421e-12 -8.17911e-13)
(-0.0650158 -0.0268839 0.0376174)
(9.11146e-13 1.32646e-12 1.30697e-12)
(5.77969e-13 2.2284e-13 -1.33228e-12)
(0.000242271 -0.0106347 -0.0309548)
(1.07861 -0.373871 -0.930023)
(0.0364298 0.20816 0.0472796)
(-0.0417566 -0.0070047 -0.316512)
(1.41026e-11 5.18032e-11 -8.71991e-11)
(-0.0457419 0.276278 -0.148041)
(0.128691 0.234378 -0.0215038)
(-0.0460281 0.0869297 -0.181818)
(-9.80684e-13 -4.81934e-13 -6.44418e-13)
(0.128093 0.12437 -0.0116083)
(-0.0987186 0.0790224 0.0416379)
(0.462428 1.90636 -0.574307)
(-10.1197 18.385 8.23563)
(-6.18758 5.33447 -0.336762)
(0.560907 -0.641457 -1.80677)
(0.343016 0.749024 0.225599)
(0.033363 -0.195248 -0.224404)
(0.399889 4.7232 -1.64051)
(0.0992258 0.0889978 -0.156786)
(-0.00143374 0.0121057 -0.0498444)
(-0.0624955 0.0628183 -0.166128)
(0.135653 0.0186604 0.0256825)
(4.84271e-07 6.72329e-07 -2.18739e-06)
(7.5968 -2.97044 2.90052)
(6.1628e-09 1.65213e-08 -3.62342e-08)
(-0.41286 -0.239324 -0.580464)
(-0.118078 0.036541 -0.142775)
(-0.0640616 -0.0158522 -0.404344)
(2.47068e-11 -1.2639e-11 -7.16972e-11)
(-19.9564 -0.774346 -2.34497)
(4.48911e-06 -1.47093e-05 -2.64044e-05)
(17.001 -0.520794 2.61231)
(-3.63344 -1.57824 -2.47448)
(0.107034 0.193027 -0.273321)
(0.470279 -1.22023 -0.599483)
(0.104563 0.377354 -0.301723)
(0.191853 -0.242102 0.412818)
(-0.0957798 0.218369 -0.25143)
(-3.2781e-12 2.36076e-12 -8.62223e-12)
(0.0294975 0.0982392 -0.108978)
(-0.0127555 -0.0206379 -0.0447832)
(-1.25371 -3.18472 -1.82639)
(2.09359e-11 1.40595e-11 -9.05319e-11)
(3.97918e-09 2.12637e-09 -7.35914e-09)
(0.0819965 0.19548 -0.230629)
(0.609966 14.6937 1.45775)
(-0.0561337 0.093886 -0.25766)
(0.0920588 0.0389106 -0.147243)
(0.175686 0.143163 -0.0966764)
(-0.0463242 0.0135423 -0.34281)
(-0.000567407 -0.000281411 -0.000923748)
(-1.15419 16.1881 0.146108)
(-0.668729 16.2274 -1.72914)
(-2.39279e-08 -4.22794e-09 -6.22492e-08)
(1.3558e-13 4.8728e-13 -9.7989e-13)
(-0.196422 -0.0503015 -0.181372)
(0.0303595 0.281371 -0.189081)
(1.119 15.8967 -0.355019)
(-4.37926e-13 -1.14317e-12 1.62829e-12)
(0.0532431 0.312584 0.119784)
(-0.0609255 -0.0405153 -0.246263)
(-5.35138e-13 3.73996e-13 3.07357e-13)
(-0.205956 7.25044 -2.43638)
(-0.0169975 -0.0408325 -0.0955458)
(0.0986899 0.0889502 -0.0033068)
(-6.58357 7.65388 3.5148)
(-3.01116e-13 7.25138e-13 1.87892e-12)
(-8.4819e-05 -1.2629e-05 -0.000308762)
(-0.138103 0.331623 -1.52804)
(-0.0473328 0.0171192 -0.0962601)
(0.114214 -0.357402 -0.0432971)
(-0.970784 5.29588 -1.88986)
(1.78303e-12 1.34799e-12 7.27302e-13)
(-6.4788e-08 3.11898e-08 -3.07054e-07)
(-2.10722e-13 1.36909e-12 -2.12025e-13)
(0.946944 1.62166 1.70416)
(-0.011236 0.00377564 -0.0533671)
(1.41423e-12 7.84991e-13 -9.51548e-14)
(1.32173e-12 -8.71233e-13 -1.93066e-12)
(-0.0681564 -0.0993279 -0.44456)
(-0.00788622 -0.0374759 -0.247565)
(-0.205831 -0.221341 -0.204773)
(1.09534e-12 2.47018e-12 -9.81395e-12)
(0.0474574 0.129294 -0.316226)
(5.18621e-13 -9.19076e-13 -1.7462e-13)
(0.0127122 0.135592 -0.12317)
(-0.447926 5.75953 -1.97758)
(-8.13532e-05 -0.000175341 -0.000347838)
(-0.421325 -0.0348709 -0.147558)
(-2.54546 2.5644 1.43213)
(-0.0974873 0.0191346 0.0118036)
(-5.33728e-13 -7.85515e-13 -1.477e-12)
(0.0255654 0.0147295 -0.13465)
(-1.10839 5.95798 -0.637442)
(-1.20282 5.83837 -1.15769)
(-4.425 16.7067 -2.61514)
(-0.00293482 0.155021 -0.13039)
(-18.2161 -2.75028 3.73208)
(-1.81854e-06 9.49779e-06 -4.16316e-05)
(-7.70318 -2.67841 2.20136)
(1.57952 0.395832 0.212302)
(-5.9639 -0.93228 0.590839)
(2.22228e-13 -8.51414e-13 -1.72742e-12)
(-0.0092527 0.00153582 -0.0474505)
(2.22334e-12 -2.53384e-13 -1.86346e-12)
(-3.42194e-12 5.39453e-12 -9.06286e-12)
(1.72169e-12 -6.52702e-12 -1.29464e-11)
(-10.022 1.37676 0.973016)
(-1.26169e-12 1.7838e-12 -2.26014e-13)
(0.0621021 0.0300371 -0.277599)
(-7.1701e-09 -5.2711e-10 -3.51228e-08)
(0.00834679 0.136688 -0.369714)
(-4.85791e-13 -1.35673e-13 -1.98279e-12)
(0.0717972 0.166504 -0.100337)
(0.0806593 -0.0286057 -0.270703)
(0.171283 0.1115 -0.0934766)
(-12.8346 0.809076 -4.00509)
(2.19654e-06 1.97709e-06 -3.32615e-06)
(-0.0923256 -0.124903 -0.276891)
(4.92687e-09 -1.41482e-09 -2.26522e-08)
(0.505183 -17.6751 0.372589)
(-10.9677 0.935171 -2.12191)
(-0.813189 0.657042 -1.65071)
(0.0645096 0.208678 -0.105281)
(-8.10716 1.09915 -2.63489)
(-0.0142962 -0.00636846 -0.0358421)
(-1.03557e-08 3.29507e-10 -9.4142e-09)
(-0.0543896 0.111218 -0.21104)
(-2.00167 1.05107 -0.125205)
(2.48545e-13 -6.0798e-13 -1.54935e-12)
(-7.26688e-05 9.3594e-06 -0.000149641)
(-0.138599 -0.0796003 -0.273828)
(-1.07514e-05 -1.16222e-05 -6.45101e-05)
(-9.12749 -0.87687 -1.95507)
(-1.61817e-08 -6.50606e-08 -1.67048e-07)
(-3.56427e-10 1.8125e-10 -1.43365e-09)
(2.00936e-09 3.6203e-10 -3.38982e-09)
(0.000221293 0.0125148 -0.0446754)
(0.635659 -0.0257291 -0.0466764)
(2.76734e-09 -3.46085e-09 -7.26678e-09)
(-1.6105e-13 -9.82179e-14 -1.86881e-12)
(-7.99885 -1.75716 -1.9797)
(-6.43715 -6.56789 -0.555055)
(0.0836653 -0.0653119 0.0906661)
(0.0649552 0.102853 -0.403994)
(0.0161254 -0.0291145 -0.0568314)
(-4.00071e-06 3.06439e-06 -9.43849e-06)
(0.0687129 -0.10538 0.0469085)
(3.5163e-07 1.26485e-06 -1.50643e-06)
(6.3891e-13 1.04018e-12 -7.05692e-14)
(-0.0860688 -0.00853468 -0.262084)
(-9.01639e-11 3.73045e-09 -1.493e-08)
(-7.38613e-05 -0.000115408 -0.000418564)
(3.00528 0.0109157 -1.57741)
(8.81317 -0.6173 -2.54177)
(-2.73459e-14 6.09191e-13 1.08328e-14)
(0.0539528 0.0120334 -0.255882)
(1.09928 -0.40569 -1.41995)
(-0.15986 0.0236422 -0.155774)
(1.17228 0.271934 0.303914)
(-0.00770664 0.0350917 -0.369)
(-1.15866e-13 -4.29096e-13 -2.07023e-12)
(-0.0121202 -0.0302202 -0.357832)
(-0.16648 0.0415353 -0.0447394)
(0.517347 0.0941374 -0.258756)
(0.0240692 -0.0377799 -0.184147)
(-1.45601 -1.53076 -0.326003)
(2.26967e-05 -1.89635e-05 -0.000140119)
(7.82554 -1.96662 -0.172849)
(-0.00221133 0.00804444 -0.0224073)
(5.55975e-05 -1.319e-05 -7.771e-05)
(2.07474 -2.82293 1.53719)
(7.15378 -0.923135 -1.947)
(0.208577 -0.189879 -0.701104)
(1.03637 0.762977 -0.32367)
(-1.23638e-12 -1.18365e-12 3.36954e-13)
(0.0728704 -0.091346 -0.346106)
(2.47836e-12 2.74047e-12 -5.18662e-11)
(2.37905e-05 2.18966e-05 -0.000266753)
(3.37556 -0.932696 -0.996016)
(-0.583919 -4.25528 0.701847)
(7.60417 0.762978 -2.60274)
(4.63913 -2.94773 -1.5977)
(0.0833485 -0.0934255 -0.487839)
(0.0397257 0.117171 0.136712)
(8.61759 -1.71697 -3.0343)
(-0.00345727 0.0112999 -0.0292066)
(-3.41205 4.60436 0.0687051)
(-0.170599 0.175046 0.02103)
(-0.0495526 0.185892 -0.142089)
(-0.0307779 0.000227761 -0.0444203)
(-0.0650654 -4.21349 1.93575)
(-1.2179e-12 5.12722e-13 1.13201e-12)
(-0.204698 -0.0180316 -0.276167)
(0.00472106 0.00560248 -0.0114628)
(0.00336766 0.0631439 -0.18353)
(-0.0609866 0.0441497 -0.149581)
(8.36729e-08 -1.25702e-07 -2.69587e-07)
(0.0103988 -0.287608 0.0267912)
(1.30336e-11 -4.43794e-12 -1.38202e-11)
(4.55945e-13 4.35213e-12 -9.8726e-12)
(0.0707626 0.0763849 0.00747908)
(5.83374e-13 1.04501e-12 9.73034e-13)
(-0.068261 0.0757985 0.0347121)
(-1.05829e-12 -1.76294e-12 1.95072e-15)
(-0.0879712 -0.167811 -0.136879)
(0.0122347 0.0851781 -0.124306)
(0.0543984 0.0431935 -0.00325559)
(0.197204 -0.0532942 -0.0105885)
(0.0324295 0.0545454 -0.0556069)
(0.000213391 0.000416087 -0.000674613)
(-0.110285 0.238741 -0.452889)
(0.0363126 0.0760778 -0.231906)
(0.0626669 0.193266 -0.221725)
(-0.0126426 -0.232913 -0.159159)
(1.49002e-11 1.66726e-11 -2.84732e-11)
(0.0605274 -0.232789 0.0528258)
(0.116572 0.208832 -0.0764964)
(-0.0389258 -0.0573069 -0.269847)
(0.15139 -0.19687 -0.442048)
(-0.0923228 -0.0154695 -0.352905)
(0.0972186 -0.126205 -0.511214)
(-6.61671e-13 1.57953e-13 -9.18674e-13)
(0.0391719 0.107729 -0.16807)
(-2.53083e-05 -2.48974e-05 -0.000408114)
(9.132e-13 2.91241e-13 -2.67596e-12)
(8.74812e-06 -4.06417e-07 -1.68406e-05)
(-0.0218909 -0.148136 -0.0619905)
(-0.208944 -0.0574796 -0.075965)
(-2.85933e-06 -1.01183e-05 -1.02233e-05)
(0.0640551 -0.0678992 -0.306017)
(0.0469279 0.18589 0.153963)
(-0.0268093 -0.0268069 -0.0873374)
(0.315827 9.64464 -2.18846)
(-9.45439e-13 -1.78558e-13 8.93297e-13)
(0.212471 -0.0208834 -0.268621)
(0.0057285 0.0726394 -0.0630132)
(7.49864e-12 1.37357e-11 -2.01041e-11)
(-1.10031e-11 2.22626e-13 -1.58286e-11)
(-0.00666431 -0.138894 -0.816304)
(-0.0412674 -0.0308981 -0.210495)
(-0.0133524 -0.0872465 -0.178996)
(0.0436806 -0.0525244 0.0575498)
(4.63169e-14 5.20565e-13 -1.02915e-12)
(-0.0272891 0.0195207 -0.231524)
(0.0411559 0.324631 -0.047641)
(-0.220677 -0.254139 -0.260211)
(0.0448087 -0.0494978 -0.143097)
(-0.029922 0.0485365 -0.430195)
(-0.0565141 -0.0756977 -0.138257)
(-0.00077796 -0.000250007 -0.00119292)
(5.85532e-13 -5.07738e-13 1.49952e-12)
(1.86825 -1.96974 -1.41654)
(1.17239 1.45857 -0.407056)
(-0.036862 0.0533236 -0.255716)
(-0.0117192 0.12125 -0.0130064)
(1.5692e-12 1.90778e-15 -1.63456e-12)
(0.11681 0.0466814 -0.392451)
(4.16254e-12 -2.57526e-12 -1.21221e-11)
(-0.0958401 0.19084 -0.28892)
(0.277721 0.176996 -0.243287)
(0.106739 -0.024822 -0.269409)
(0.0440205 0.217984 -0.215473)
(9.50738 6.55043 4.56585)
(4.23813e-07 4.42953e-06 -1.15333e-05)
(0.400629 -0.413156 -0.758443)
(5.18262e-13 1.03172e-12 -1.46351e-12)
(0.0581884 -0.0970447 -0.189866)
(0.119593 -0.117757 -0.285968)
(0.373315 0.265746 0.104401)
(4.86146e-07 -1.27535e-06 -4.2286e-06)
(0.0315124 -0.0595994 -0.158048)
(0.0582704 -0.132301 -0.11875)
(0.00612998 0.00238899 -0.00947554)
(-0.105838 0.0610194 -0.221279)
(-0.0027637 -0.0779838 -0.328592)
(0.0624237 -0.0240911 -0.262789)
(0.00106596 0.0420933 -0.160767)
(-5.63794e-09 2.08268e-07 -4.25021e-07)
(-0.0649924 -0.121441 -0.333911)
(0.134245 0.130838 -0.215402)
(-0.00272717 0.000845903 -0.0337304)
(-0.0500864 0.112268 -0.243924)
(-0.00697993 0.0494169 -0.328737)
(-0.00535546 -0.000663475 -0.0290645)
(13.9285 -5.98478 0.0211287)
(-0.0989138 -0.0068673 -0.435296)
(0.0794488 0.0784961 -0.296189)
(1.3705 8.46805 -3.65416)
(3.11018e-14 9.4214e-14 -2.31821e-12)
(0.112596 0.0766407 0.0155872)
(-0.17407 0.0664342 -0.147776)
(0.0045513 0.0140898 -0.0258399)
(0.076735 0.0557414 -0.425371)
(2.63182e-07 1.87048e-06 -1.18397e-05)
(-0.0830286 -0.139988 -0.1751)
(-0.174507 -0.146725 -0.22762)
(-0.0317138 -0.0718245 -0.255059)
(0.0678733 -0.048332 -0.27222)
(-0.0001623 -0.000163466 -0.000479938)
(-0.0845601 -0.130016 -0.239288)
(-0.135479 -0.138925 -0.0936122)
(0.0614 0.067114 0.0880649)
(-0.0183799 0.00213081 -0.229371)
(0.172757 -0.0393989 -0.127106)
(1.60902 0.119531 0.0858553)
(0.0960058 -0.0247537 0.138101)
(0.0423518 -0.395993 0.000797935)
(0.244281 -0.0285537 -0.130354)
(-0.375194 -0.177405 -0.267743)
(-0.0425873 -0.104042 0.0400247)
(0.0502081 -0.200466 -0.00127431)
(5.08692e-06 2.61591e-06 -1.42894e-05)
(0.068674 -0.00370487 -0.173213)
(0.0537618 0.0822955 -0.504248)
(0.0528247 -0.179643 -0.317948)
(-0.034099 -0.0691126 -0.228849)
(0.0165392 0.000670501 -0.151587)
(-1.97138e-13 -1.26273e-12 -4.11778e-13)
(0.000490165 0.00227011 -0.00687143)
(-0.0462771 0.0787308 -0.151779)
(-2.10119e-12 -6.594e-15 5.59573e-14)
(0.000175377 0.00023807 -0.00217389)
(0.0251766 0.209795 -0.304041)
(0.0192193 0.0226596 -0.313927)
(-8.10957e-10 2.65341e-10 -1.37509e-09)
(-0.351816 22.6557 10.8298)
(-0.113575 -0.0334433 -0.331418)
(11.9568 -0.68587 2.08113)
(-0.0607849 0.00577092 -0.104108)
(-0.0735828 0.0917191 -0.241162)
(0.0646652 -0.181386 -0.268812)
(0.116666 -0.135382 -0.311707)
(0.0198402 -0.0557716 -0.173452)
(0.0972142 -0.231356 -0.0616968)
(4.09838e-11 -6.31589e-11 -1.6011e-10)
(1.5113e-13 -4.46209e-13 -3.51185e-12)
(0.0460945 -0.113866 -0.190549)
(-0.178055 -10.8394 -1.2481)
(-1.24532e-12 -5.12279e-13 -2.30901e-12)
(-0.0887942 -0.0364921 -0.00213607)
(-1.04357e-12 -1.1618e-12 1.8025e-12)
(-1.10292e-12 1.04269e-12 -1.68907e-12)
(0.0196817 0.0187495 -0.0102302)
(0.101802 0.0454852 -0.170984)
(-6.70401 0.0544658 -4.97875)
(0.13148 -0.191999 -0.300868)