/*--------------------------------*- C++ -*----------------------------------*\
| =========                 |                                                 |
| \\      /  F ield         | OpenFOAM: The Open Source CFD Toolbox           |
|  \\    /   O peration     | Version:  2312                                  |
|   \\  /    A nd           | Website:  www.openfoam.com                      |
|    \\/     M anipulation  |                                                 |
\*---------------------------------------------------------------------------*/
FoamFile
{
    version     2.0;
    format      ascii;
    arch        "LSB;label=32;scalar=64";
    class       volScalarField;
    location    "0.25";
    object      alphat;
}
// * * * * * * * * * * * * * * * * * * * * * * * * * * * * * * * * * * * * * //

dimensions      [1 -1 -1 0 0 0 0];

internalField   nonuniform List<scalar> 
32842
(
0.000815951
0.000818812
0.000815499
0.000815495
0.00111984
0.000815495
9.14338
4.3778
0.000815495
0.000815495
1.36603
0.602439
0.000815485
0.000815495
0.000814879
0.000815197
0.000815495
0.000815495
0.000814745
0.00111021
0.00115683
0.00113698
0.00109743
0.0008155
0.00108922
0.000815495
0.000815495
0.00100124
0.590749
0.000815278
1.13441
0.65095
15.8933
0.000814966
23.3
7.88462
0.00116702
0.000815028
0.000813752
0.000814328
0.000815497
0.0011535
0.000815495
0.000815495
0.456148
0.000815418
3.1736
0.000815774
0.00114055
0.0991129
5.15405
0.000815495
0.811198
0.115131
0.000815498
0.00437001
0.000815495
0.0364756
0.000815496
0.000815495
4.83484
0.779497
0.867652
0.00115734
0.000815114
1.18831
0.000815496
0.958797
0.60231
0.00081632
0.00099162
17.5634
0.685091
0.000815495
0.000815495
0.000812632
0.124996
0.000815495
0.683634
1.51683
0.001116
0.000815495
0.000815495
0.76033
1.06729
0.000815495
0.000815495
0.0038857
0.145643
0.000815495
0.0011199
0.00113741
11.306
0.000815318
0.000815495
0.000814504
0.664563
0.000814949
0.986892
0.000815495
0.000815495
0.00128358
0.000819028
0.562321
0.679627
0.623356
1.19486
0.000821841
0.724914
0.000815682
0.000815495
0.000815495
0.117829
0.000815495
0.00082036
0.00114589
0.745483
0.938719
0.000819714
0.000815306
0.000815495
0.000815495
0.0883011
0.000815499
0.000783266
0.67667
0.543132
0.00081463
10.8275
0.000815498
0.000815495
0.000822639
0.00158428
0.674961
0.00150883
0.000815357
0.00081582
0.0519531
0.000815036
0.000814747
0.729632
0.000815231
0.725069
0.0626788
0.000815116
0.0008154
31.7174
0.00081535
0.000815495
0.000815495
0.000824028
0.234013
0.0010542
2.58512
0.000814995
0.000815495
0.000815495
0.000815182
0.000814104
0.000815495
0.000814625
0.000815495
0.00109182
0.000815495
0.000815069
0.00081518
0.000815495
0.000815475
0.000816288
3.98966
0.0865295
0.001446
8.01477
0.000815495
0.00116503
2.11276
0.000815465
0.000818618
0.000815495
0.000815495
0.00104214
0.000815495
0.000815495
0.000815495
0.750093
0.000815495
0.692142
0.000815495
0.000814208
0.000815493
0.000815495
0.131808
0.590541
0.000815495
0.613415
0.000814136
0.000815072
0.000814246
0.662701
0.000815495
0.000814413
0.000814722
0.139809
0.789491
0.02553
0.00287174
0.00081405
0.00115676
0.618369
0.000813988
0.000815845
0.000830038
9.77451
8.30686
0.000815495
0.000815495
0.00081367
0.000812685
0.000815802
0.000815418
0.117682
0.000815495
0.000815495
0.000815251
0.00130813
0.519534
0.000815498
0.639792
0.000815221
4.92592
0.000815495
0.000815495
0.000813651
0.000815495
8.70139
0.00111104
0.00112157
0.00011975
0.000812954
0.777321
0.0212557
0.000815496
0.000814669
0.647997
0.000815141
0.000814418
0.821667
0.000815496
0.000815495
0.000815498
0.000815495
0.000815495
0.000815137
0.664057
0.000813667
0.000815495
0.000815494
7.22857
0.000815495
0.000815334
0.000815495
0.000815495
0.000815495
0.000815497
0.507001
0.000815495
0.000815495
0.00081549
0.000814845
0.000815498
0.000815495
0.667994
0.000815495
0.513363
0.000815495
4.70891
0.000814586
0.00127219
0.000815495
0.000814243
0.000815495
20.8182
9.10969
0.000815495
0.000815381
0.00289181
6.15071
0.000815495
0.00115666
0.000815495
24.3998
0.000815497
0.599278
11.4132
0.164941
0.000803057
0.594625
0.000815495
0.000814118
0.00108649
1.84671
0.000815499
0.000815495
0.0008155
0.000815495
0.000815495
0.000815495
0.000815495
0.000815121
0.785096
0.000815498
0.000815495
0.772464
0.000815495
0.000815495
0.000815495
0.000813624
10.087
0.000815495
0.000815223
0.000814098
0.0553736
0.000815495
0.000918022
0.000815498
0.000815495
0.000814305
0.000815498
0.000816006
0.000815495
0.000815641
0.698964
0.000815495
0.000815495
0.000815484
0.000815495
1.30242
0.604652
0.000815495
0.000815495
0.000815451
0.000815518
0.000561543
0.000815495
0.782034
0.000815495
0.000815495
0.631931
0.899987
0.718704
0.000816726
14.7309
0.000814556
0.662264
0.000815495
0.000815468
0.0010932
0.000814016
0.000815495
0.00081369
0.000815495
0.000815495
0.000813888
0.472843
0.000815495
0.000815334
0.000815495
0.000815495
3.46279e-05
0.00107504
0.000815495
19.9921
0.000815485
0.00139822
0.000815495
0.728132
0.00126596
0.000815495
0.000853376
0.00109616
0.00081459
0.794649
0.679787
0.000814785
0.000812781
0.000815499
0.000815495
0.000815495
0.000815495
0.00081548
0.000815495
0.000815266
0.000815495
0.000815495
0.000814792
0.000815495
0.000815283
0.000814746
0.000814146
0.000815005
0.24816
0.000815495
0.000815704
0.000817113
8.92306
0.000814924
0.000814528
0.00144163
0.000815495
0.00112872
0.53632
0.000815491
0.000815495
0.000814871
0.000815495
0.00081515
0.000815838
0.000815371
0.000814179
12.7526
0.000814456
0.68353
0.000815495
0.00116173
6.04108
0.000815495
0.000815407
0.000815495
0.000784701
0.000815497
0.000813453
0.000815495
0.000815495
0.695165
0.00111424
1.32477
0.000815833
29.2907
0.125972
0.737626
0.00115383
0.216492
0.00117236
0.751569
0.000815499
0.000815764
0.000950307
0.000815498
0.00106683
0.0344866
0.000815499
0.000813143
0.000815408
12.7982
0.00104865
0.000814499
0.000814943
0.00113103
0.00081392
0.000817233
0.000815248
0.00117741
0.000815495
0.000815496
0.000815495
0.000815703
0.000815452
0.756664
0.000815462
0.000815578
0.000815495
0.00118269
0.00112422
0.000815495
0.000815812
0.76078
0.707053
0.000815495
0.000815498
0.000815495
0.000815495
0.00111701
0.000815642
0.0558877
0.758945
0.000815495
0.000815498
0.967231
0.000811888
0.000815495
0.00121648
0.000818988
0.000958385
0.000825095
0.71698
0.00116161
0.576886
0.762198
0.000826163
0.000815005
0.00114074
7.04478
0.000815405
0.713751
0.00114507
0.982943
0.00104983
0.000815495
6.49935
0.00121571
0.000815486
0.688001
0.000814869
0.672049
0.00081545
0.000815498
0.0012912
0.00140095
9.18002
5.63997
0.170142
1.91512
7.9172
7.12853
12.2021
0.736564
0.000815856
0.000815495
0.000816078
0.759788
0.143898
0.88604
6.26366e-05
0.000814969
0.000815495
0.00105568
0.205035
0.0008155
7.42575
0.0273723
0.000811924
1.89866
0.000673344
10.2231
0.000815497
0.000815495
0.000813638
0.724127
5.01288
0.000815495
0.00118731
0.000814973
0.200406
0.599701
0.000815212
0.000815873
0.000815495
0.000815495
0.0413623
0.00811409
0.000815495
0.000815495
0.000814903
0.664247
0.070408
0.951419
0.000815545
0.000815495
0.000815495
0.664606
0.770878
0.577151
0.393022
0.590817
0.000815495
1.6389
0.590892
0.000815286
1.20603
0.000815496
0.00111926
0.000815495
0.000817219
0.00112528
0.0010967
0.000815495
0.000815402
0.000814813
0.00081454
0.768837
0.00116408
0.000815497
0.000814264
1.03968
0.000815495
0.00200094
1.01051
0.909518
0.000815071
0.000815495
0.362372
0.659377
8.22527
0.000814301
13.5238
1.09393
0.14276
0.000819909
0.192643
0.000815497
0.000815495
0.000815499
0.000815495
0.000815495
0.182872
0.00113236
0.000815477
0.000815495
0.000815377
0.000815495
0.000813386
0.000815495
0.000814017
0.171351
0.940876
0.000814495
0.000815495
0.0904727
0.236528
0.0965188
0.000814039
0.188179
0.000815495
0.000815495
0.000814531
0.439677
0.687265
0.000815495
0.00110503
0.000815495
0.0848068
0.000815495
0.000815495
0.000815497
0.0008155
0.288004
0.000815495
0.000815495
0.0321437
0.157351
0.000807917
0.000815496
0.000815495
0.604859
1.07219
0.000815495
0.694404
0.00110831
0.000815495
0.000815495
2.57635
3.47386
0.000815495
0.971302
3.24709
0.000814955
0.0349945
0.000815388
0.000815495
0.00114195
0.00127113
0.000847734
0.000815383
1.75634
0.000815495
0.00685508
0.000815495
0.000815495
0.777853
2.39683
0.0817731
0.146614
0.000815495
0.000815497
0.00107346
0.00110132
1.04729
0.671453
1.10206
4.83784
0.000816898
0.00081438
4.1483
0.000815495
0.273032
0.000812888
0.000814389
0.848663
0.694393
0.000815376
0.000814439
0.000815495
0.000815495
0.00081387
0.000815495
0.000815094
0.000815495
0.000815495
0.787533
0.000815495
0.000814586
0.000815495
1.24088
0.000815495
0.000813672
0.000815777
0.590217
0.000815495
0.000815184
0.000811788
0.000815493
0.000814016
0.000815497
0.000824409
0.000814215
0.000815449
0.000814871
0.00081548
0.000359938
0.000815087
0.00117277
0.000938741
0.00117869
0.000815495
0.0012547
0.00151328
0.57299
0.000815125
0.000815335
0.00116434
0.112307
0.000815495
0.525493
0.0010979
0.000815495
0.000815495
0.000824983
0.000814198
0.000814202
0.803493
0.000815495
0.000815495
0.000814923
0.00115608
0.666293
0.000815445
0.0011613
0.000815495
0.00107167
2.56117
6.85829
0.00107866
0.000814049
0.898871
0.000815495
0.000815495
0.00081549
0.000815424
0.000815241
0.000813964
0.202241
0.000815495
0.000820373
0.810866
0.00121166
0.000815356
0.00081579
0.000815495
0.893875
0.00152823
0.732278
0.000814532
0.590507
0.531501
0.00112977
0.000815498
0.00105469
0.000814434
0.00118094
0.000815126
0.000815495
0.00114799
4.95705
0.655251
0.00081388
5.49755
0.000815286
0.554552
0.000815514
0.000815495
0.000815495
0.000815495
0.000813749
0.000814455
0.00081399
0.000815495
0.000815495
0.000814386
0.000814183
0.000815441
0.665702
0.000815777
0.128062
0.000815392
0.000815568
0.00112387
17.1743
0.00081559
0.000814463
0.00114931
0.000815495
0.000815252
0.000815501
0.0012974
0.895339
0.000815495
0.000815495
0.000815158
0.000815317
0.000815495
0.000815744
0.000815495
0.000815495
11.2466
0.000815484
85.2089
0.000814705
0.000815408
0.000815844
0.000816294
0.00109639
0.000814647
0.000815495
0.000815495
0.000815495
0.198167
0.000815495
0.000815589
0.721631
0.000815102
0.672867
0.000815495
7.20375
0.000814032
0.000814612
0.915214
9.10904
0.000814725
0.000814351
10.7814
0.00130936
0.000815489
0.000814654
0.000815495
0.000815354
0.000815243
0.662443
0.690417
0.683258
0.000815495
0.73402
0.000815495
0.000813585
0.000813539
0.00116365
0.000941629
0.000815495
0.000815453
0.000815495
0.000814773
0.000818587
0.000815495
0.000813752
0.000813821
0.00081564
0.00934833
0.00126663
0.000815495
0.144709
0.253246
0.000815466
0.000524526
0.0964054
0.000815495
0.000815495
0.000815123
0.516713
0.000815495
0.000815495
0.643261
0.0011395
0.000815495
0.000815495
0.000815495
0.000815224
0.000945239
0.16779
0.000815495
0.000815477
0.570714
0.000815487
0.000815433
1.1008
0.000814572
0.000815495
0.000815499
0.000815493
0.655996
0.000814007
0.000815112
0.000815495
0.000815486
0.00130793
0.000815495
0.570025
0.00112165
11.9682
0.000815495
0.000815495
0.000815482
0.000814238
0.000815242
0.000815495
0.0883562
0.514214
0.00104356
0.00656077
0.000815495
0.00107845
0.000815495
0.000815495
0.000814507
0.000815495
0.000815267
0.000815495
0.000815495
0.000815488
0.000815496
0.000815495
0.381223
0.000815597
0.942361
0.00081504
0.783882
0.761432
0.000815495
0.00109169
0.766665
0.823677
4.13326
0.00683686
0.000815298
0.000815499
0.000815495
0.000815499
0.106815
0.000815498
0.170251
0.0444502
0.0448067
0.041302
0.000944909
12.304
0.000815495
8.64774
6.8441
0.000815495
7.56423
0.000857714
0.000814925
0.000815495
0.000815495
5.83983
0.000814229
0.705745
0.00113345
42.0857
0.497133
0.798763
0.00141741
0.000815495
0.000815004
0.000814176
0.000813779
0.000815618
0.000815495
0.000815487
0.000815599
0.0894904
0.0012361
0.000814479
6.40343
0.000815007
0.00081485
0.000814021
0.000814857
1.02718
0.169946
0.000814638
0.00081464
0.000815204
0.697479
0.0939667
0.000814456
3.62869
0.731719
0.0350547
0.00081546
0.000815424
1.2529
0.790758
0.000813088
0.00081548
0.000815497
0.000815295
15.4706
0.000814365
0.518835
0.000813906
0.000815495
0.000815473
0.000814874
0.000866035
0.0431801
0.000814895
0.000815474
45.1772
0.124669
0.635654
0.000814286
7.49047
2.48322
0.000815466
0.000815497
0.000814138
0.919671
16.0636
0.000815491
0.0010262
3.92439
0.000815063
0.000944016
1.34127
0.000814676
0.000815495
0.000815489
0.000815495
10.9585
0.000814071
0.000814
0.000140867
38.8116
0.00100786
0.000926817
0.0388143
0.000815387
8.91806
0.498045
0.000815355
0.87257
0.409796
7.04102
0.000498062
6.52658
6.03497
0.000814311
2.22991
0.641647
0.000438414
0.0008155
0.000812504
0.000815471
0.000814913
0.000813776
0.000814947
0.000813973
2.12067
0.000815495
0.000815495
0.009165
0.000815495
0.000815179
2.63887
0.106098
0.0012346
0.00089919
0.000815476
0.214269
20.9256
0.643372
0.000815273
0.000816202
0.000814462
0.1862
8.62868
0.00128903
0.000818679
8.68288
0.000814947
0.000361467
0.000818049
0.000815414
0.280488
0.00122717
0.000815644
0.0197156
0.000815344
0.000814179
0.146233
14.6158
9.2264
0.00081409
0.000815192
0.000815495
0.000814027
0.000818952
0.000826193
3.55727
0.000815495
0.000815495
8.76222
0.000815863
0.000814853
0.0984576
0.000815495
7.61469
9.52465
0.000815495
0.000815528
8.98572
4.52623
7.00879
14.821
0.000815598
12.2243
0.726834
0.00136632
12.0758
0.000825291
0.835319
0.000813302
0.000815482
0.00081895
0.213426
0.00152124
0.000815461
0.0840606
0.630404
15.9187
0.142833
0.000815495
0.0612807
0.460059
0.169452
0.000815495
0.000815484
19.088
0.000815931
0.000815734
0.245732
0.000824673
10.885
3.47941
0.00191427
0.000921784
0.000814838
0.000814426
10.7307
0.351876
0.000815498
0.00081645
0.000815495
0.261985
0.000814204
0.292617
8.64905
0.000818134
0.321348
2.41498
0.0228171
8.27009
8.66041
2.45958
0.000816082
0.762066
6.07098
0.00831343
0.00103865
0.000815495
10.6102
0.000814953
0.000818666
0.00161623
4.07493e-05
0.658612
0.263953
0.00130038
0.800814
5.61748
0.000814984
13.8727
0.00141106
0.804695
1.65329
0.00081464
4.09271e-05
0.317155
9.30375
0.00143347
0.000815496
0.803003
0.000815495
0.00114652
3.57921
0.00109957
0.000815772
0.641321
0.12711
0.000814397
13.5846
0.000815495
0.000815459
0.000814603
0.000814732
0.229182
0.00108031
0.000815495
0.143923
0.513145
0.000815228
0.000815663
56.4623
0.00081478
0.000815495
0.00081623
4.3247
8.85537
0.000813519
12.087
0.000815495
3.67473
0.317905
0.000825618
0.660776
1.5603
0.0248746
0.00224691
0.000818396
0.47066
0.951217
0.29302
6.86541
16.187
0.0011594
5.17815
0.000815495
11.3714
0.000815163
0.634985
0.000814033
8.37058
0.000815329
0.00114582
0.00098388
0.303591
0.424615
0.00113819
0.000815504
10.4026
0.600601
0.000814039
0.000815495
2.02864
0.0683155
0.000815494
0.855812
0.000815175
0.866628
0.738858
0.860777
0.000814989
0.00081502
5.51228
2.1992
0.00111428
0.000815465
0.00126808
0.000814865
0.000814714
0.214892
0.000815495
0.68075
0.610467
0.000815696
0.000330943
0.000815495
1.86869
1.18198
0.000815495
0.00158707
4.98285
0.000815496
0.000815495
0.000814407
0.224842
0.000815495
0.000819574
0.000814117
0.00122537
0.000819046
0.000819953
0.000815445
0.000815495
0.00081407
0.000815551
0.000815495
0.000813264
0.000814289
0.000814111
0.000814237
6.72092
0.000815631
0.000815091
4.34028
0.00080479
0.000815029
0.000815061
0.000819241
0.000815495
0.00118796
6.7828
0.000815038
0.000815094
0.000818015
0.000831862
0.146584
0.349386
0.00146168
0.550258
9.18622
0.000815762
0.00081473
14.9753
10.3014
0.00112551
0.858344
0.000815996
0.000815303
1.0477
0.00113237
7.9619
0.00124384
0.00124622
0.00103899
0.000814728
9.04691
0.00081298
0.0008155
0.00134052
9.25227
4.42625
0.505281
8.75947
0.00110015
0.00107558
0.00377955
0.000813104
4.74755
12.6706
0.00108823
1.38548
0.000815471
2.33429
0.000814851
0.000833459
0.00081456
0.866491
0.000815495
10.4987
0.000816345
0.000815741
0.0013167
6.57313
0.153674
0.000828857
0.000815495
0.000815168
8.14367
0.000815852
0.000815495
0.634009
0.000815495
8.00523
0.000814163
0.000816181
0.000817701
0.000814759
0.000814654
0.000815495
4.63623
0.000814087
0.0176269
0.277147
0.000816698
0.000815625
0.000815566
0.000814167
0.000815332
0.000814006
6.95731
0.000813951
0.000813911
0.000815495
0.00135527
0.522958
0.000814861
0.000814656
0.000815495
6.85447
0.000815497
0.000814771
0.000815191
0.000814906
0.000814123
0.783194
0.000813946
0.000815342
0.000814988
3.67949
0.000819075
0.000815092
0.000812621
0.774168
0.00081587
0.000818069
0.000720165
0.000815494
0.000820054
0.000814918
8.02982
0.000815475
0.000814563
0.000768422
0.470263
14.6717
0.000815393
10.3981
9.8391
8.49544
0.000815332
10.0648
0.000776167
0.00107683
0.00081515
14.4974
12.627
0.000814236
0.000815499
0.000815213
0.000814965
8.05248
16.0428
0.000815465
0.000815495
0.000794183
0.000814955
0.000816717
0.930693
0.000815327
5.35767
13.9156
0.000815497
0.000828984
0.244642
0.000823856
0.000807153
0.000815497
0.000815425
0.627901
0.000814697
8.55406
0.000814177
0.000818899
0.000815521
0.82936
0.00129884
0.000815477
0.000815496
0.000815495
0.000815495
0.000826993
0.000813261
10.6816
0.00081549
0.000716327
0.000754125
0.00162729
0.00081466
0.149138
0.866595
0.000814897
0.202965
0.0622258
0.00147529
0.000814666
0.000815495
0.740326
10.3088
0.176211
0.0606406
0.000815196
0.000815495
0.00162675
0.000814208
0.00840232
0.000815491
0.000813602
0.00114832
0.0127642
0.000815209
0.000815495
5.81764
0.000815495
0.000814096
0.000815495
0.000815495
1.54632
0.781196
11.6588
0.000815495
0.000814023
0.000814279
8.33909
0.000827901
0.948818
2.86249
0.00124463
0.000813998
0.000815053
0.000815409
0.000815495
6.39476
6.06279
0.000815495
0.000815268
0.000814021
0.000815494
0.655073
0.000815495
0.73505
0.000815495
0.770841
0.00115782
1.18262
0.000815496
0.000815495
0.000815495
0.000817085
0.00081389
0.00081557
0.000815495
0.629945
0.000816735
0.0116021
0.435725
0.390687
0.000815486
0.000814663
0.000815498
0.000815495
0.00081767
8.67673
0.000815495
0.000812912
0.000814716
0.813497
0.0117267
8.71109
11.5187
10.3845
0.695176
0.00166069
22.122
0.000808776
0.616536
0.000814642
0.000812631
0.00150101
0.203146
0.911936
0.00321737
0.000815545
0.695183
1.54715
0.000815495
0.000815495
0.000818205
0.000813346
0.000814737
0.000813905
0.00115381
0.609953
0.000815498
7.57293
1.60778
0.000815495
0.000815495
0.000815495
0.000814932
0.000815495
0.000815495
0.000815193
0.00125896
4.64786
0.000816055
0.000660975
3.88149
0.000817206
15.7504
0.744943
0.000815293
0.00113552
0.000168117
0.000820563
0.00113405
0.00117549
0.0708487
0.915349
0.000819342
31.7613
0.000815495
0.000815494
0.000551541
0.000813915
0.000813728
0.000814169
0.000815496
6.68524
0.000815498
0.000813584
0.000815296
0.000815495
0.00081435
0.000815166
0.000814704
0.000818087
0.83902
0.000815495
0.000239523
0.000815253
0.00083383
0.000814546
0.000815495
67.1974
0.000817552
0.00081622
0.549905
0.000821682
0.000814299
0.000812524
0.000850016
0.00714358
0.425567
0.000823384
0.000815495
18.6895
0.000815271
0.000814598
0.00081516
0.0772587
0.000815156
0.000814041
0.000815352
3.42772
0.00107206
0.000815325
0.00114289
0.00081496
0.853171
0.00133461
0.000813787
0.000215131
0.000815497
0.000815487
0.000814194
0.000815495
0.000815495
0.000815626
0.00117326
0.000815495
0.00081471
0.000823188
0.852735
4.08374
0.000815495
0.000819717
0.00122453
0.000822759
0.0996904
0.60808
0.0209302
0.000824716
0.000817858
0.00116452
0.000815479
0.000823014
0.000815498
5.7632
0.532901
0.00115559
0.676001
0.980425
0.000813778
0.000815498
1.08044
0.000815495
0.000812679
0.055498
0.00109229
0.00081493
0.000815428
0.00083342
0.000814634
0.000814525
0.000815296
0.000815495
0.000814067
0.854556
0.000814961
0.000815495
0.000813909
0.000813881
0.000815495
0.176425
0.408156
0.00124846
0.000814496
0.00110879
0.002218
0.000814816
0.000815495
0.000814467
9.68132
0.67091
3.22409
0.000814636
8.0136
0.000815294
0.000814278
0.2901
0.561415
0.000814197
0.000818481
0.000815495
0.000815402
0.000815827
0.0008139
0.000814309
0.000814291
0.0171864
0.0200109
0.954107
0.000815436
0.000815498
16.0126
0.000815489
10.0901
0.000815495
0.00109949
0.000813178
0.000815495
0.000815495
0.00170214
0.146114
0.000812347
0.00081231
0.000815495
0.000815495
0.000418274
0.000814119
1.11681
0.00110369
7.48338
0.593593
0.000815495
8.58206
0.000815495
0.000814673
0.000815495
0.000815495
0.000814057
0.000813555
0.800933
0.000815441
0.00159046
0.000815495
0.000815506
0.000814767
34.3614
0.000814101
0.000814124
2.30895
0.786885
0.000815495
0.000814744
0.00081527
0.000814125
0.0264305
0.000815479
0.78421
0.000816261
0.000814013
0.00434973
9.83109
0.0008153
0.000790369
0.000814383
0.000824506
0.000815495
0.000815495
14.7794
0.000814237
0.000815495
0.00142781
0.000815495
0.000814084
0.000812942
0.000815498
0.000818863
0.00192362
0.000815479
0.000821139
0.0440383
9.31189
2.64827
0.000815497
0.000815495
85.1736
0.000815495
0.000818003
4.15924
0.000812872
0.358645
0.431805
2.16314
0.73802
0.0008131
0.000814584
0.000815621
0.000815495
0.000814333
0.65728
0.000814975
0.633005
0.000814256
0.0378914
0.0094429
0.000815494
2.67394
0.000814912
0.000815077
0.000905716
40.9532
0.921019
0.000815495
1.04113
0.000815015
0.000815495
0.000815495
0.000815335
0.000814904
0.000815495
7.67152
0.675801
0.000817939
0.000814034
0.000818183
0.000815495
13.7825
0.000815495
6.4627
0.000815494
0.000815495
0.000813481
0.00121252
0.000814254
15.0004
8.12097
0.000815272
0.000815104
0.000815495
4.94665
0.000814762
0.000815495
0.000815665
5.48678
0.000814478
0.000815495
0.000815495
0.000812204
8.21855
1.75962
6.27123
1.56227
20.565
0.00081457
0.000816351
0.000819007
4.22578
0.000814868
0.00081571
6.34511
0.000920841
0.160047
0.000814335
0.000813649
0.713773
0.655916
6.79527
0.000815495
0.000813999
7.80122
62.4065
0.00585197
9.58831
0.109544
0.000815495
0.000815569
10.9139
0.000815072
0.000815495
0.00112
7.61791
0.000661956
6.91754
0.731432
7.93392
0.000815084
0.309019
6.98475
0.000814364
0.000813087
9.68871
0.000817989
0.000815633
0.000815495
0.000815085
0.000822517
0.00115458
0.00081756
2.09663
0.000813678
0.000815495
0.000814016
0.000811161
0.00103326
0.0182711
0.000815685
0.000814376
0.000815454
1.59921
8.04304
0.000814882
0.000815041
0.000791211
0.000815513
0.000825465
0.000815495
0.000815404
7.15317
0.000818894
1.50803
0.000815495
9.27554
0.000814819
1.36874
0.532887
10.037
0.00081549
0.000821808
0.878689
0.000814069
0.000815495
0.000814419
0.00081539
0.000818551
0.000453341
4.98542
9.30682
7.11559
6.09869
0.00110967
2.4335
0.00112007
0.00122603
0.000815489
0.000815476
0.00111467
0.000814737
0.00106489
0.000815483
0.000818725
0.000814771
0.00109898
0.000815256
0.000824813
0.0011901
0.000815493
0.000815495
0.000815423
0.000814513
0.000814595
0.000815495
0.511098
0.000815377
0.000813883
7.61709
0.000814229
10.0554
8.99883
0.687743
10.3533
0.676121
9.89081
0.747713
0.000815495
0.000815495
0.000814706
0.59782
0.000815495
3.14704
0.00081576
0.000817579
0.000815495
0.000815217
0.000815012
0.000815673
0.000814807
0.000804406
0.000815311
0.790544
0.000814364
0.000815495
19.6307
0.000822641
0.000814489
4.49331
0.57111
0.000815485
0.000815321
0.000815494
0.982249
4.97457
7.39541
13.9384
8.78597
0.000814715
0.000815495
0.000815495
0.000816279
0.000813847
0.000815495
0.00107597
0.000815492
0.000815495
0.000815494
0.000818309
0.00081506
0.000815752
0.000815138
0.000814397
3.256
5.00042
8.50964
0.0226472
0.197901
0.000814583
0.000815199
9.56979
0.000791675
0.000815494
9.48897
0.0011293
0.000813157
0.000814816
0.0016841
1.32995
0.099532
0.000814814
0.000815495
0.00118315
6.35534
0.000815495
0.00081325
0.000815495
0.0200638
5.9909
0.000819755
0.00125988
0.000815482
0.000815498
0.000815494
0.000815384
0.000815337
0.000815007
0.000814471
0.000814274
0.000815371
0.0008152
0.000815131
0.000814723
0.000815285
0.000804408
0.000815484
0.0229779
0.032364
10.9717
4.31649
0.685822
0.742193
0.000190035
0.143443
0.000815495
0.000815248
0.000810847
0.0953395
0.347515
0.585445
0.000828577
7.45447
6.72249
1.17616
2.63017
0.00109925
0.000389259
0.000824179
6.65093
0.0105501
10.6645
0.000814195
0.000815372
0.000814697
0.000813843
0.626198
0.0179367
0.00658897
2.33268
0.000823697
0.000815002
0.000815844
0.000814092
0.097579
0.000992927
0.000816094
0.000816086
0.991314
0.000396049
0.000815483
0.000815043
0.000812548
0.000814048
0.000815495
0.000814539
0.69145
0.000815495
0.000815495
0.000815457
11.942
0.000819717
0.000838804
0.000828293
0.000812759
4.98984
0.000814501
0.000817608
0.000815349
6.72845e-06
0.462236
0.674719
0.000814782
0.00348762
0.000814959
0.000814913
14.6238
1.17888
2.73228
0.22969
0.897306
0.000815495
33.5489
0.000815491
0.000815495
0.000815495
0.000818071
0.000815495
0.201505
0.000814178
0.334139
10.2536
0.000814926
0.000814958
0.00170425
0.000817864
0.80274
0.000815495
0.0033255
0.000815495
0.000817952
8.35368
0.00081437
0.000815705
11.0698
0.00081412
0.000814131
0.000814434
13.7768
6.15801
0.000814109
0.78995
0.00081414
0.000813421
0.000814673
0.000815499
0.000813941
0.000815625
0.000815283
0.000815495
0.000812891
0.000812591
0.0113772
0.000815497
0.000424228
0.000816568
0.0023061
0.00115006
0.195426
12.2453
0.000815495
0.000815495
0.000814804
27.9522
24.1907
0.000815495
0.000815028
3.17185
12.3747
0.000831512
1.64285
1.25279
0.000816077
0.587707
0.611726
0.000822704
0.000815419
0.000813724
0.000819426
0.809934
0.00080419
14.4889
0.000815495
0.000815201
0.812042
39.2565
0.000816868
13.5112
15.0774
0.000815072
0.000816829
0.00132465
0.000815088
15.3371
0.00121809
0.00115851
0.00131115
0.000814645
0.000815433
0.882555
0.00287492
0.000816036
0.00081528
0.000815184
0.000815116
0.000815492
0.000815494
0.646334
0.900616
0.381561
0.000815495
0.000815738
0.000815495
0.000814231
0.000817201
0.000814151
0.000816385
0.000821543
0.00821452
0.000814474
0.515146
0.644222
0.000815495
0.000815062
0.000815093
4.65404
0.000815495
0.000821994
0.067963
0.784747
0.000814728
0.000815495
0.000814166
0.000815068
0.000818305
1.8692
0.000820908
0.000814191
0.182686
7.43075
0.000812948
6.56923
0.000812025
0.000842219
0.000852247
0.000814362
1.24737
0.000813492
0.000813498
0.000812757
0.000819633
0.000820414
0.000819523
0.0012116
0.00081975
0.00107598
0.000820837
0.000663284
0.000819143
0.000813524
0.000820169
0.000816382
0.00132528
0.575736
1.7811
0.000823995
0.000823795
0.00113152
0.000815309
0.00128812
0.856148
0.925579
0.00122406
0.279831
0.000814265
0.00162116
0.00294526
0.000815494
2.41317
1.2403
2.21519
0.00121574
0.00118079
0.433799
0.000812877
0.000813421
0.000897376
5.50661
0.000808088
0.000814837
0.016523
0.000815705
0.000814476
0.00124629
0.180461
18.1233
0.000814056
0.43665
0.000814807
0.435306
0.000814153
0.000814036
1.02716
0.000815846
0.00136209
11.749
0.000743061
0.00123564
11.0522
0.000819466
0.09729
0.000814202
0.775985
4.67456
0.00107541
0.000814315
0.00078642
0.471911
8.26384
3.26863
0.000815237
0.000812597
7.98281
0.000814762
0.000813158
9.22598
4.42532
0.00131647
0.000812857
0.000815205
0.000813997
0.768667
0.000813962
0.000815031
0.000815495
0.120609
0.000817652
0.000815495
0.000836303
0.00145438
0.000815336
0.000814845
9.69177
7.85338
0.000815373
0.000814181
0.876181
0.12435
0.000817288
0.364944
0.00107247
0.00140861
0.0332938
0.000815163
0.00019095
0.00109895
0.000814376
0.000813442
4.14458
0.000721376
1.66017
0.000815101
28.2816
0.152473
0.00499343
0.494643
0.000774593
1.34365
12.3501
9.70142
0.491652
6.39028
0.688845
0.000814744
0.000816923
0.716061
0.000815301
0.000814151
0.653342
0.160649
0.000814958
0.000815501
0.000814725
0.000814472
0.00116688
0.648584
0.000815389
0.0838163
0.000812715
0.000814724
0.542952
0.814007
7.95039
0.000818863
0.986329
14.6175
8.88695
16.8269
0.0008155
0.000812932
0.000814093
0.000813046
0.00108903
0.00135082
0.000812903
0.000814969
7.21596
5.32819
0.0012586
27.7684
0.649018
28.4096
0.00112556
7.20123
0.000815971
8.08291
0.00115347
0.657349
0.000813879
0.000815495
3.1909
0.000815495
0.000815496
0.000815401
0.000815495
0.000815495
0.00108949
0.64722
0.00997915
0.000815495
11.4975
9.68707
0.00108476
0.000815495
0.000815495
0.000814641
0.000814388
0.0588293
0.000814146
0.901598
0.899716
0.000815497
0.000815495
11.3079
13.7048
1.25251
0.8059
0.000816383
0.00119947
0.750101
0.000815495
0.000815495
0.000814438
18.947
0.000815495
0.000815495
0.000815495
0.000815495
0.00113459
0.00081548
0.000817944
14.3345
0.000948184
0.00149674
0.000813279
0.686532
0.767112
12.3532
0.000314507
0.000815493
1.12217
0.000815485
0.000815498
0.000815498
0.8891
0.000815495
0.00116053
0.794855
0.000815495
0.000815495
0.617894
0.000815499
0.000815495
6.29603
0.80635
0.000820056
0.815766
0.000815491
0.000815495
0.000815495
0.000815495
0.000815495
1.73268
0.000815495
1.12841
0.00112216
0.000815495
0.000815495
0.740572
0.000814426
0.59396
0.00111082
0.000815495
0.000815495
0.000815498
0.000815495
0.00107435
0.679072
0.000815495
0.00114847
0.696993
0.000815495
0.000815495
0.00110343
0.000815498
0.000815497
0.0011119
0.00109228
0.000815495
0.000815498
5.63896
0.624203
0.00113832
0.635625
0.773463
0.000827623
0.820424
0.000815495
0.000815495
0.000815495
0.000815495
0.000815495
0.000820105
0.0322039
0.000815498
0.00110029
7.4504
0.00113045
0.000815712
0.000815495
5.70304
0.0491408
0.001123
2.10394
0.000815495
0.133998
0.000815495
0.000815494
0.000815495
0.000815498
0.578326
0.000815498
0.77318
0.000815497
0.000815495
0.000815495
0.000815495
0.00113923
0.00107302
0.639438
1.01666
0.000815495
0.000815495
5.29073
6.32286
0.000815495
0.000815491
3.61473
1.09492
0.000824586
0.80326
0.000818227
0.0008155
0.000815495
0.000815495
0.000815495
0.00108516
0.850839
0.915022
0.000815496
0.000815495
0.00111787
0.000815691
0.635293
0.000814917
0.000815495
0.000815072
0.00115082
0.00109738
0.00114214
0.000815495
0.00106786
0.749209
0.000815293
0.000814563
0.000808079
0.740567
0.000816078
0.000815495
0.000813245
0.000814029
0.000815495
0.735394
0.00121353
0.000815498
0.000815495
0.940256
0.000814917
0.000815495
0.525952
0.531225
0.0011705
0.000815495
0.000815495
0.00116252
0.000815495
0.000815495
0.000815418
0.000815498
0.000815495
0.000815495
0.000815495
0.000815495
5.8694
0.000815495
0.000815495
0.000829886
8.49331
0.0903445