/*--------------------------------*- C++ -*----------------------------------*\
| =========                 |                                                 |
| \\      /  F ield         | OpenFOAM: The Open Source CFD Toolbox           |
|  \\    /   O peration     | Version:  2312                                  |
|   \\  /    A nd           | Website:  www.openfoam.com                      |
|    \\/     M anipulation  |                                                 |
\*---------------------------------------------------------------------------*/
FoamFile
{
    version     2.0;
    format      ascii;
    arch        "LSB;label=32;scalar=64";
    class       volScalarField;
    location    "0.25";
    object      T;
}
// * * * * * * * * * * * * * * * * * * * * * * * * * * * * * * * * * * * * * //

dimensions      [0 0 0 1 0 0 0];

internalField   nonuniform List<scalar> 
32842
(
300.049
300.349
300
300
300
300
250
250
300
300
250
250
299.999
300
300
299.949
300
300
299.927
300
300
300
300
300
300
300
300
300
304.645
299.977
300.854
300
250
299.944
250
250
299.836
299.945
299.86
299.873
300
300
300
300
299.936
299.992
302.117
300.029
300
304.966
250
300
299.977
303.517
300
300.079
300
304.169
300
300
250
299.95
300
300
299.957
301
300
299.906
300
299.957
300
300.528
300
300
300
299.963
304.919
300
300
300.256
300
300
300
300
300
300
300
300.101
305.831
300
300
300
300.594
300
300
299.892
300
300
300
300
300
299.848
300.246
300.385
300
299.997
302.317
300.401
299.99
299.951
300
300
300.497
300
300.391
300
300
300.072
300.367
299.979
300
300
304.721
300
300.142
300
299.788
299.908
299.878
300
300
300.17
299.875
299.812
299.933
299.973
300.088
300.196
299.95
299.92
299.999
299.972
300
300.282
299.958
299.99
250
299.985
300
300
300.039
299.803
300
300.473
299.932
300
300
299.967
299.849
300
299.907
300
300
300
299.939
299.967
300
299.998
299.988
305.822
300.48
299.967
300.461
300
300
300.169
299.997
300.121
300
300
299.811
300
300
300
300
300
299.965
300
299.861
300
300
299.98
300
300
300
299.855
299.955
299.867
300
300
299.883
299.889
300.037
300.717
303.785
300.019
299.844
300
300
299.837
300.037
299.931
299.996
300.052
300
300
299.804
299.802
300.032
299.98
300.228
300
300
299.974
299.986
299.922
300
300
299.971
300.026
300
300
299.859
300
300.007
300
300
300.163
299.728
300
303.633
300
299.91
301.041
299.961
299.837
300
300
300
300
300
300
299.956
300
299.805
300
300
300.103
300
299.983
300
300
300
300
300
300
300
299.999
299.915
300
300
300
300
300
300
300.562
299.901
299.763
300
299.864
300
299.975
299.596
300
299.986
300.083
300.278
300
300
300
250
300
300
299.828
303.716
300.338
300
300
299.853
300
250
300
300
300
300
300
300
300
299.96
300
300
300
300
300
300
300
299.8
300.364
300
299.971
299.85
305.471
300
300
300
300
299.871
300
300.055
300
300.013
300
300
300
299.999
300
300
300
300
300
299.995
300.001
300.281
300
300
300
300
300
300
300
299.841
299.952
299.898
300
300
299.997
299.998
299.84
300
299.92
300
300
299.828
303.642
300
300
300
300
300.184
300
300
250
299.999
299.804
300
299.988
299.781
300
300.161
300
299.903
300
300.006
299.924
299.709
300
300
300
300
299.998
300
299.976
300
300
299.923
300
299.977
299.918
299.855
299.918
299.625
300
300.022
300.119
299.847
299.92
299.897
299.943
300
299.819
299.993
300
300
299.933
300
299.962
300.035
299.987
299.856
250
299.885
299.819
300
300
250
300
299.991
300
300.078
300
299.968
300
300
299.821
300
300
300.036
263.758
303.169
300
300
303.797
299.693
300
300
300.029
300
300
300
300.532
300
299.748
299.842
300.025
300
299.894
299.94
300
299.823
300.053
300
300
300
300
300
300.012
299.995
300
299.996
299.917
300
300
300
300
300.034
300
300
300
300
300
300
300
300.016
305.206
300
300
300
300
299.865
300
299.817
300.205
300
300.04
299.746
300
300
300
300.322
299.948
299.999
299.936
299.976
300
299.888
300
300
300
300.067
299.988
299.999
300
299.933
299.906
299.995
300
299.811
299.987
300.067
250
303.871
300.233
300.067
300.123
299.951
299.994
300.038
300
300.061
300
304.829
300
300.355
299.941
300
300
301.737
300
250
303.213
299.792
300.075
299.904
300.126
300
300
299.799
300
299.626
300
300
299.941
304.301
300
299.97
300.042
300
300
303.822
304.089
300
300
299.923
299.855
303.974
300
300.005
300
300
301.615
300
299.741
300.061
300
300
300.393
299.789
299.978
300.47
300
300
300
300.298
300
300
300
299.99
299.927
299.896
300
300
300
299.867
301.535
300
299.881
301.344
299.785
300
300
302.204
301.887
250
299.871
304.313
300
305.466
299.977
305.37
300
300
300
300
300
304.806
300
299.998
300
299.987
300
299.808
300
299.838
305.001
300
299.891
300
303.398
305.61
300.143
299.844
305.971
300
300
299.839
301.885
300
300
299.998
300
304.593
300
300
300
300
300.095
300
300
304.192
304.413
299.825
300
300
300
299.817
300
300
300
300
300
300.257
300.379
300
300
300.107
299.929
300.208
299.989
300
299.992
299.834
299.982
299.96
300.239
300
303.176
300
300
302.11
300.768
300.259
300.071
300
300
300
300
301.121
300.244
300.525
299.876
300.127
299.675
300.212
300
305.776
299.718
299.853
299.806
299.989
300
299.815
300
300
299.848
300
299.956
300
300
299.774
300
299.89
300
299.983
300
299.805
300.031
299.977
300
299.966
299.983
300
299.841
300
300.051
299.841
299.995
299.934
299.998
299.861
300
299.833
300
300
300
299.757
299.926
300
299.959
299.982
299.822
303.627
300
299.88
300
300
300
300.137
299.823
299.799
299.958
300
300
299.937
299.999
299.778
299.994
299.784
300
300
299.877
299.686
299.983
299.845
300
300
300
299.999
299.992
299.882
299.853
304.993
300
300.043
300
299.765
299.985
299.924
300
299.806
299.864
300
299.892
300
299.838
299.846
300
300
299.887
300
299.961
300
300
291.422
299.913
299.827
300.084
300
299.965
299.998
300
300
300
299.863
299.837
299.839
300
300
299.88
299.859
299.993
300
299.876
300.329
299.989
300.007
300
300.592
300.011
299.888
300
300
299.812
300
299.853
299.997
300
300
299.91
300
300
299.99
300
300
250
299.999
304.195
299.915
299.991
300.012
300.037
299.869
299.908
300
300
300
303.644
300
300.003
300
300
299.979
300
300.289
299.842
299.906
300
300.3
299.993
299.875
300.143
300.023
299.999
299.911
300
299.985
299.973
299.998
304.793
299.906
300
299.612
300
299.8
299.875
299.922
300
300
299.996
300
299.921
300.196
300
299.813
299.82
299.927
299.973
299.834
300
299.996
304.755
299.997
299.948
304.53
300
300
299.96
299.976
300
300
299.984
300
300
300
300
299.971
299.95
300
300
299.998
300
299.999
299.993
297.784
299.902
300
300
300
299.786
299.836
299.992
300
299.999
299.915
300
300
300
299.693
300
300
299.999
299.864
299.972
300
304.331
301.091
300
300.089
300
300
300
300
299.895
300
299.976
300
300
299.999
300
300
300.324
300.01
300
299.95
300
300
300
300
300
301.06
300.594
305.532
299.979
300
300
300
304.327
300
303.76
303.614
304.748
304.533
300
300.046
300
300.258
250
300
299.762
300.513
299.936
300
300
304.33
299.863
299.819
300
258.622
300
300
299.94
300
299.946
299.856
299.815
299.921
300
299.999
300.012
300.152
299.999
299.889
299.929
299.946
299.929
299.805
299.93
300.771
304.023
299.907
299.908
299.968
300
300.084
299.887
300.309
299.931
300.624
299.991
299.99
300.347
299.891
299.743
299.998
300
299.97
300.291
299.854
299.84
299.81
300
299.998
299.931
299.99
300.341
299.936
299.997
250
299.92
299.88
299.871
300.135
300.401
299.997
300
299.854
299.765
300.199
300
299.97
300.262
299.954
299.824
300.288
299.91
300
299.999
300
299.73
299.839
299.832
300.153
302.628
299.795
299.882
300.436
299.989
299.887
299.842
299.983
299.736
299.941
300.267
300.405
300.4
300.253
299.872
250
299.773
300.079
299.999
299.679
299.997
299.936
299.814
299.928
299.834
296.041
300
300
299.952
300
300
301.769
300.116
299.944
300.238
299.997
306.376
300.485
300
299.964
300.076
299.839
304.982
300.004
299.936
300.156
300.369
299.94
300.233
300.282
299.991
304.779
300
300.011
300.103
299.982
299.859
304.689
300.244
300.018
299.847
299.966
300
299.842
300.011
300.471
300.258
300
300
300.124
300.039
299.93
304.695
300
300.239
300.206
300
300.002
300.221
300.516
300.213
300.378
300.009
300.728
300.433
299.875
299.85
300.341
300
299.764
299.999
300.132
303.466
299.918
299.996
304.599
299.771
300.304
304.607
300
300.071
304.757
300.589
300
299.999
299.917
300.047
299.967
304.51
300.336
300.452
300.53
299.784
299.997
299.928
299.884
300.488
300.478
300
299.987
300
303.496
299.919
305.143
265.618
300.16
303.923
302.74
304.662
300.261
300.35
250
299.726
300
300.166
300.399
300
300
300.391
299.941
300.206
299.927
300.536
300
300.517
299.813
300.054
250
299.943
300.229
300.011
299.887
304.946
299.906
300.13
304.415
300.038
300.043
300
300
300
299.896
250
300
299.91
299.76
304.604
299.883
300.222
300
299.996
299.905
299.915
303.416
300
300
304.809
299.864
299.969
299.943
302.107
299.924
300
300.02
300.214
300.148
299.787
299.913
300
304.124
304.934
300.222
300
303.187
300.07
299.915
300.278
305.235
301.058
300.316
299.662
299.861
300
300.279
300
299.926
300
300
299.803
300.578
299.982
300
299.785
301.723
300.185
300
300.001
299.952
299.816
299.844
300
304.254
304.871
300
300
299.962
300.251
300.276
300
299.927
299.949
300.298
299.871
300
299.932
300.026
299.933
299.906
300.573
300
299.799
300.01
299.969
300.277
300
300.038
300.203
300
300.022
300.245
300
300
299.879
303.597
300
300.233
299.92
299.879
300.207
300.088
299.963
300
299.846
300.006
300
299.762
299.865
299.85
299.864
300.202
299.852
299.956
300.157
300.002
299.949
299.954
300.269
300
299.923
300.099
299.952
299.903
300.032
300.381
305.454
300.073
299.944
299.783
300.147
300.028
299.919
299.927
300.189
300
299.894
300.003
299.98
299.695
300
299.999
299.851
299.917
300
299.918
300.009
299.728
300
299.988
300.06
299.579
300
300.097
300
300
299.982
299.851
299.904
300.053
300
300.274
299.997
300.39
299.932
300.49
299.858
300.07
300
300.074
299.954
300.026
299.973
300.203
304.054
300.368
300
299.963
300.21
300.037
300
300.52
300
300.104
299.879
299.973
299.983
299.915
299.908
300
300.658
299.849
300.074
300.194
300.116
300.015
300.004
299.857
299.952
299.84
300.414
299.834
299.83
300
299.956
299.933
299.933
299.868
300
299.843
300
299.917
299.962
299.935
299.851
300
299.834
299.982
299.944
299.844
300.028
299.948
299.691
300
299.858
299.951
300.348
299.999
300.268
299.931
300.705
299.998
299.897
299.895
300.277
300.234
299.992
299.953
299.92
299.907
299.982
299.817
300.073
300
299.958
299.95
299.983
299.865
300
299.955
299.944
300.244
300.229
299.997
300
299.915
299.936
299.948
300.31
299.982
299.888
299.966
300
300.049
299.997
299.965
300.101
300
299.975
299.767
299.914
299.732
299.859
299.929
300.003
299.917
299.987
299.998
300
300
300
300.096
299.766
300.348
299.999
300.429
300.446
299.907
299.911
304.754
300
299.936
300.62
300.069
300.004
299.878
300
299.893
300.337
305.583
300.124
299.967
300
300.03
299.862
300.388
300
299.797
299.999
299.968
299.968
300
299.918
300
299.849
300
300
302.966
299.993
299.991
300
299.843
299.869
299.816
300.408
302.187
299.971
299.939
299.839
299.951
299.99
300
299.659
299.714
300
299.975
299.841
300
299.906
300
299.847
300
300
299.675
300.241
300
300
300
299.965
299.81
299.907
300
300
299.956
300.102
300.29
300.192
299.999
299.91
300
300
299.974
299.754
300
299.723
299.917
299.897
300.453
299.817
299.66
299.893
299.979
299.939
250
299.914
300
299.96
299.918
300.033
300.054
300.473
300.01
299.984
300
299.877
300
300
300.178
299.75
299.918
299.828
299.863
300.572
300
300.496
300.598
300
300
300
299.938
300
300
299.965
299.766
300.363
299.905
300.171
300.367
299.827
300.245
300
300
300
300.214
300.07
300
300
300.465
299.991
300.328
300.165
300
300
300.743
299.823
299.805
299.857
300
300.469
300
299.784
300
300
299.871
299.953
299.904
300.14
300
300
300.246
299.974
299.995
299.814
300
304.273
300.156
300.032
300.021
300.01
299.872
299.85
300.089
300.171
300.024
300.051
300
300.225
299.974
299.902
299.964
305.502
299.964
299.845
299.985
300.704
300
299.981
300
299.943
299.974
299.961
299.814
300.168
300
299.999
299.856
300
300
300.013
300
300
299.915
299.966
300
300.266
300
300
300
300.039
305.476
300
300.232
299.983
300.093
300
299.998
299.97
300
300.703
299.998
299.998
300
299.647
299.815
300
299.998
300
299.698
299.981
299.991
299.94
299.993
300.354
299.908
299.894
299.979
300
299.847
300
299.943
300
299.831
299.827
300
304.805
304.624
299.815
299.891
300
300.002
299.928
300
299.89
300.481
300
305.112
299.907
299.656
299.979
299.868
300.17
299.843
299.857
300.245
300
299.99
300.034
299.829
299.873
299.872
300.38
300.368
299.874
299.994
300.001
299.889
300
300.058
300
300
299.752
300
300
303.38
300.334
300.294
300.035
300
300
300.253
299.852
300
299.898
300.319
299.875
300
300.275
300
299.912
300
300
299.847
299.791
300
299.994
299.839
300
299.903
299.908
253.969
299.852
299.852
300.395
300
300
299.92
299.976
299.853
300.008
299.998
299.892
300.059
299.84
300.085
300.11
299.966
300.298
299.879
300.026
300
300
299.522
299.86
300
299.916
300
299.849
299.726
300
300.313
299.822
299.998
300.347
299.979
300.037
250
300
300
303.545
300
299.905
302.046
299.718
302.067
302.263
302.011
299.932
299.741
299.9
300.014
300
299.874
299.987
299.943
299.972
299.867
302.603
299.861
300
301.821
299.936
299.951
300.025
302.01
300
300
303.891
299.945
300
300
299.919
299.932
300
300.823
300.037
300.019
299.843
299.973
300
300.342
300
300.316
300
300
300.066
299.788
299.867
300.241
300.043
299.97
299.931
300
300.473
299.902
300
300.017
300.415
299.88
300
300
300.049
300.134
300.345
299.935
300.21
299.9
299.899
300.078
300.273
300.343
299.931
300.022
300.462
299.802
305.806
299.875
299.802
300
300
299.864
300
299.839
300.724
302.669
300.185
300.733
304.381
300
299.952
300.034
299.955
300
299.864
300.107
300.138
300.109
299.756
300.26
299.955
304.377
300.367
299.877
299.741
300.755
300.171
300.014
300
299.954
300.064
300.215
300.04
250
299.806
300
299.84
299.878
300
303.696
300.019
299.845
299.996
300.176
299.976
299.933
299.933
300.038
300.002
300.13
300
299.99
300.175
299.967
300.338
300
300.506
299.928
300.282
300.212
300.359
299.999
300.064
299.898
299.847
300
299.883
299.989
300.39
300.071
300.319
299.87
300.441
299.631
300
301.302
299.996
299.872
299.999
299.998
299.999
299.919
300
299.999
300.159
299.913
299.937
299.975
300.055
300
300
300
299.987
299.895
299.897
300
300
299.987
299.826
300.462
299.865
300.764
300.779
300
300.798
300
300.797
300
300
300
299.916
299.966
300
299.703
300.027
300.17
300
299.97
299.949
300.019
299.925
300.006
299.98
299.861
299.879
300
300.241
300.441
299.891
300.722
299.95
299.999
299.981
300
300
300.444
300.482
300.185
300.552
299.915
300
300
300.053
299.824
300
299.852
300
300
300
300.184
299.953
300.028
299.956
299.807
300.254
300.514
300.651
300.057
305.202
299.901
299.967
300.684
299.845
300
300.709
300
299.748
299.921
299.911
303.798
300.145
299.926
300
299.79
300.151
300
299.759
300
300.24
300.176
300.317
300
299.999
300
300
299.989
299.982
299.946
299.888
299.869
299.987
299.967
299.959
299.916
299.976
300.19
299.999
300.281
300.193
300.175
300.212
299.996
299.986
300.358
300.299
300
299.937
299.971
300.038
299.828
299.976
300.263
300.061
299.98
300.573
300.265
300
300.043
300.657
299.732
300.24
300.241
299.861
299.987
299.901
299.814
299.932
300.19
299.869
300.272
300.741
299.942
300.037
299.849
300.362
299.737
300.042
300.062
299.992
299.776
299.999
299.95
299.956
299.845
300
299.898
300
300
300
299.996
300.401
300.278
300.084
300.296
299.705
300.575
299.893
299.842
299.983
300.045
300.724
300.393
299.921
300.271
299.944
299.936
300.208
299.869
301.461
301.293
299.805
300
300.28
300
300
300
300.174
300
299.824
299.858
305.99
300.358
299.932
299.94
299.913
299.965
299.994
300
300.158
300
300.163
299.979
299.88
300.023
300.804
299.851
299.854
299.886
300.304
300.355
299.851
300.461
299.855
299.775
299.91
300
299.834
300.013
299.977
300
299.719
299.668
300.281
300
300.267
300.086
299.766
300
305.848
300.245
300
300
299.924
300.208
300.128
300
300.002
300.61
300.537
300.695
301.324
300.336
300.063
299.993
299.788
300.618
299.991
299.806
300.247
299.805
300.014
300.504
300
299.969
301.88
250
299.99
300.558
300.419
299.921
300.076
299.905
299.955
300.688
299.956
299.815
299.842
299.905
299.991
300.582
299.866
299.943
299.976
299.966
299.96
300
300
300
301.125
304.793
300
300.026
300
299.861
300.02
299.853
299.963
300.242
300.628
299.89
299.868
299.956
300
299.914
299.958
299.762
300
300.001
300.45
299.749
299.925
300
299.856
299.955
300.081
300.198
300.067
299.853
300.521
300.589
299.717
302.69
299.927
300.347
299.879
299.877
299.82
299.784
299.786
299.7
300.391
300.42
300.361
299.777
300.264
300.403
300.421
300.664
299.948
299.788
300.371
300.061
300.02
299.976
302.905
299.947
300.236
299.669
299.98
299.874
299.629
300.172
299.674
300.27
299.865
300.002
300.148
300
300.011
300.507
300.093
299.691
299.783
299.906
299.72
299.922
300.119
300.696
300.115
299.925
300.066
299.873
299.887
299.867
302.464
289.345
299.845
299.999
299.925
300.021
299.849
299.843
299.902
300.019
299.992
300.792
300.133
300.009
300.214
300.073
304.986
299.844
299.933
300.247
299.835
299.805
300.282
301.357
300.231
300.215
299.969
299.662
300.247
299.922
299.75
300.454
300.452
300.061
299.714
299.969
299.837
300
299.832
299.949
300
300.08
300.251
300
299.872
299.891
299.982
299.928
300.31
300.234
299.986
299.86
299.894
299.996
300.165
299.94
299.971
299.913
303.156
299.964
300.13
299.99
299.88
299.734
300.121
300.076
250
299.958
299.952
305.026
300.027
300.003
300.146
299.995
299.887
300.393
300.051
300.339
299.887
299.918
300.003
300
299.979
299.856
299.684
299.857
299.929
299.958
299.916
299.889
299.852
299.745
299.988
300.056
299.701
299.918
304.203
299.707
300.048
300.159
299.742
300.673
299.962
299.892
300
299.725
299.83
299.735
299.797
299.931
299.722
299.943
300.358
300.19
299.827
299.821
299.705
300.212
299.758
300.171
299.979
300.255
299.971
299.817
299.805
300
300.54
300
300
300
300
300
300
300
300.176
300
301.063
301.151
300
300
300
299.907
299.882
304.588
299.854
299.977
299.868
300
300
300.661
300.538
300
300
299.994
299.764
300
300
300
299.896
300.434
300
300
300
300
300
299.998
299.98
300.6
300
299.968
299.843
300
300
300.144
300.147
300
301.194
299.999
300
300
299.997
300
300
300
300
300
300
300
300
300.302
300
300.064
300
300
300
300
300
300
300.638
300
299.92
300
300
300
301.567
299.844
299.901
299.924
300
300
300
300
300
300
300
300
300
300
300
300
300
300
300
300
300
300
300.259
300
300
300
300
300.166
300
300
300
300
300
300
300.185
300.15
300
300
300.349
300
299.961
300
300.156
300.224
299.797
300.181
300
300.185
300
300
300
300
299.99
300
300
300
300
300
300
300
300
300
300
300
300
300.266
300.274
300
300
300.17
300
300.067
300
300.037
300
300
300
300
300
300
300
300
300
300
299.975
300
299.939
300
299.954
300
300
300
300
300
300
299.978
299.899
299.965
299.756
299.997
300
299.758
299.839
300
300
300
300
300
300
299.936
300
300
300
300
300
300
300
300
300
299.965
300
300
300
300
300
300.98
300
300
300.455
300.911
300.816
299.411
300.086
299.916
300
300.536
300.802
300
300.447
300
299.745
300.987
304.859
300.718
299.999
300.516
303.435
300.236
300.792
299.979
300
299.938
299.966
301.021
300.85
299.947
300.934
300.711
300.995
299.903
302.127
299.617
299.971
300
299.997
250
301.004
299.97
300
299.867
300
299.862
300
300.337
300
299.724
299.889
300.487
299.861
300.073
299.764
300.073
304.045
300.994
299.999
299.886
299.86
300.438
300
299.986
299.913
299.842
299.991
300.163
299.999
299.767
300
300.929
299.984
299.898
300
300
301.44
300
300
300
299.799
299.826
299.928
300
300
301.697
304.039
299.981
299.935
299.961
299.897
300.051
299.926
300.017
300
299.996
299.68
299.939
299.832
299.854
301.498
250
299.668
300.019
299.775
299.906
299.931
299.997
300.299
299.832
299.868
300.433
299.877
299.793
300.267
300.431
300
299.745
299.875
299.833
300.022
300.023
299.8
299.823
299.996
300.328
299.882
299.722
299.942
300.005
299.682
299.939
299.812
299.986
299.815
300
299.956
300.107
299.965
299.993
299.888
299.765
299.988
300.147
299.986
299.942
299.994
299.999
300.144
299.885
299.952
299.997
299.996
300.093
300.523
300.01
299.993
300.675
300
299.787
300
300.1
299.918
300.264
300
299.884
299.938
299.803
299.918
300.188
299.929
299.929
299.798
299.942
299.926
300.048
305.173
300
300
299.844
303.934
300.306
300.212
300.032
300.126
300.299
300.26
300.09
300.109
300
299.841
299.898
300
300.346
299.915
300.126
299.694
300.252
299.93
299.946
299.81
300.259
300.109
299.906
300.626
299.926
300
300.506
299.836
300.95
299.944
299.968
300
299.834
299.97
300.02
300.073
299.94
300.245
300
300.618
299.919
299.989
299.712
300.045
300.831
305.092
299.977
300
299.853
300.072
300
300.089
300.389
299.914
299.894
300
300.029
299.998
300
299.999
300
300.323
300.206
299.751
299.901
299.922
299.954
299.967
299.667
299.911
300.142
300.638
300.059
299.869
300.266
303.913
299.943
299.846
299.808
300
299.917
299.969
300.248
300.479
300.529
300
299.908
300
300
300.051
300.242
300.191
300.038
300
300
300
300.01
299.967
300.063
299.922
299.976
299.847
300.093
300.982
300
300.006
299.917
300
299.984
299.879
302.291
300
300
300.421
300.416
299.707
304.636
300
300.114
299.913
299.989
300.15
305.197
300.003
300.546
300.255
300
300.167
300.286
301.319
300.323
300
300.041
299.839
300.456
299.875
300.31
300
299.999
299.949
300.047
300.105
299.961
299.997
300.345
300
300.04
300.049
300.207
300.351
300.514
300.352
300.401
300.019
300.488
299.79
300.358
300.403
302.39
300
302.021
302.406
300.229
300
300
300.221
300.452
300
300.21
299.635
299.877
299.897
300
300.063
299.991
299.898
300.275
300.62
300.362
300
299.808
299.991
300
300.308
300
299.971
299.836
299.947
300.265
300
299.989
300
300
299.979
299.881
300.108
300
299.995
299.933
300.06
300
299.937
299.832
300
300.513
300.09
300.09
299.936
300.666
300.213
299.918
300.174
299.895
299.877
299.818
300.218
300.016
299.854
299.98
299.824
300.742
299.929
300
300.35
300.666
305.824
300.674
300.227
299.763
299.948
299.919
300.06
300.393
299.967
300.276
299.982
300.093
303.774
299.888
300.1
300.316
302.401
300.309
300.236
301.753
305.082
300.145
302.038
300.82
300.15
299.95
299.838
299.748
300.548
304.599
300.155
300.193
299.87
300.139
300.549
299.663
300.16
301.955
300
300.203
299.94
299.933
300.138
300.269
300.21
305.676
301.831
300.383
301.444
300.269
300.182
299.914
300.075
299.953
300
299.84
300.119
300.502
299.917
300.489
300.649
300.894
300.171
300.473
300.669
299.769
299.745
300.088
300.429
300.193
300.233
299.958
299.843
300.919
300.224
300.403
300.256
300.055
300
299.953
299.887
299.905
300.376
300.306
300.8
299.952
300
301.086
302.943
300.185
300.081
300.633
300.44
300.222
300.17
299.834
299.962
300.313
300.479
300.296
300.113
299.84
299.974
300.008
300.083
299.831
299.955
299.955
299.87
300.201
299.959
299.935
299.961
299.935
300.187
299.812
300.02
299.538
300
300.089
300.253
299.871
299.834
303.481
299.812
299.956
299.768
300.475
300.554
301.385
305.273
300.146
299.983
300.057
300.578
300.167
299.746
300.998
300.099
300.656
300.219
300.692
300.188
300.33
299.896
299.879
303.7
300.558
304.271
300.243
300
299.915
299.838
300.176
300.087
300.338
300.382
299.783
300.096
300.59
300.087
300.314
300.483
300.283
299.935
300.243
299.981
299.956
302.025
300.574
300.175
299.864
300.001
300.591
300.18
299.912
300.176
300.128
300.316
300.149
301.876
300.045
300.1
300.195
299.933
300.648
299.963
300.065
300.132
300.22
299.83
299.841
299.865
299.736
299.73
299.511
299.505
300
299.738
300.482
300.105
300.647
304.202
299.822
300.069
300.61
300.143
300
299.962
299.786
300.44
299.84
300.186
299.921
300.264
299.861
266.726
300.262
301.547
299.883
300.619
299.876
299.976
299.97
299.817
301.147
300.203
299.795
299.841
300.068
300.504
300.087
299.81
299.804
299.888
300.01
300.24
300.28
300.087
300.118
299.926
300.46
299.953
300.005
300.463
300
300
302.825
299.971
299.661
299.985
299.836
303.764
299.908
299.779
303.789
300.32
299.977
300.171
300.877
301.07
300.531
299.728
300
299.182
300.843
300.739
299.909
299.721
300.494
299.759
299.855
300.72
300.034
299.83
300.334
300.341
300.006
300.113
299.781
300.235
300.463
301.03
300.728
300.249
299.753
299.997
300.313
299.929
300.229
300.244
300.555
300.006
299.936
300.251
299.983
299.93
299.521
300.29
300.041
300.121
299.858
300.253
299.943
304.408
300.704
299.94
300.525
300.138
300.234
299.326
300.331
300.075
299.923
300.32
300
300.449
300.079
299.839
300.089
300.047
300.964
300.602
299.95
299.978
301.58
299.834
299.459
299.721
299.886
304.165
300.847
299.893
300.616
299.763
304.225
299.881
300.277
300.178
300.114
305.56
300.498
300.006
300.176
299.923
300.513
300.341
299.987
299.943
300.244
304.354
304.357
300.091
300.124
299.876
300.528
299.705
299.984
300.145
300.25
300.16
300
300.367
300.198
299.984
300.203
300.641
300.038
299.943
300.233
300.147
300.333
300.535
299.811
300.091
300.378
299.849
300.337
300.137
300.136
299.985
299.864
299.962
300.502
300.438
299.765
299.769
299.842
299.96
304.357
299.817
299.903
299.793
300.144
299.976
299.953
300.261
299.944
299.918
299.717
299.875
299.9
299.785
300.123
300.266
300.255
299.867
300.317
299.728
299.922
299.968
299.839
299.889
299.813
299.929
300.046
299.974
299.913
299.9
300.005
299.945
306.074
299.942
299.882
299.839
299.974
299.883
299.916
300.109
299.972
299.902
300.004
300.403
300.549
300.506
300.526
300.029
300.211
304.874
299.908
300.071
300.125
299.996
300.037
300
299.904
299.998
299.953
300.254
299.718
299.699
299.725
300.12
299.917
300.17
300.097
300.35
300.06
300.141
300.236
300.009
299.886
300.477
300.042
299.886
300.214
299.893
299.915
299.935
300.169
300.755
300
300.278
299.909
300.982
299.948
300.072
300.191
300.184
300.877
300.569
300.474
300.499
300.953
300
300.229
304.478
299.981
299.823
299.94
299.886
299.936
299.893
299.858
300.361
299.992
299.986
300.284
300.222
299.925
300.104
300.464
299.855
300.065
300
300.019
300.035
300.207
299.868
300.537
299.967
299.913
299.98
299.847
300.078
300.598
299.703
300.307
300
299.946
299.87
299.934
300.821
300.224
300.093
300.135
300.556
299.9
300.076
299.762
300.939
299.976
301.09
300.155
300.782
299.976
299.849
299.958
299.829
300
300.003
300
299.947
300.096
299.909
300.144
300.139
301.118
299.809
299.963
300.193
303.478
299.847
302.675
300.165
301.015
300.076
300.024
299.863
300.041
300.04
300.079
300.016
250
299.846
299.932
299.744
299.976
300.777
299.852
299.987
299.916
300.093
299.821
300.273
300.597
299.956
300.017
299.827
300
299.939
300.006
300.277
299.64
299.935
299.702
299.885
300.423
299.97
300.505
300.115
300.164
300.016
299.996
299.99
300.101
299.919
300.561
299.966
300.001
300.697
300.008
300
300.241
300
300.811
299.87
300
299.898
300.222
299.954
300.107
300.808
299.925
299.823
299.91
300.303
300.208
300.256
299.986
300.026
300.679
299.777
299.884
300.168
300
300
300.377
299.839
300.75
300
300.029
300.002
300.07
299.698
299.895
299.88
299.912
299.954
299.922
299.986
300.127
300.159
300.089
300.439
299.718
300.061
299.938
299.917
299.88
300.177
299.907
300.026
300
300.291
300.073
300.297
300.213
300
300.157
299.805
299.957
299.985
299.977
300
300.089
300.102
300.116
300.17
299.883
300.117
300.111
300.288
299.668
299.828
299.911
299.832
300.042
299.995
300
299.985
299.891
300.204
300.18
300.571
300.225
300.131
300.24
300.066
299.921
299.899
300.23
300.453
300.169
305.873
299.747
299.773
299.834
300.125
299.834
299.886
300.079
300.235
299.945
299.954
299.8
300.651
300.109
300.422
299.905
299.869
300.024
300.008
299.986
300.165
299.923
299.939
300.339
299.888
300.107
299.925
300
300.001
300.328
300.297
300.146
299.891
299.871
300.026
300.069
300.137
299.772
299.931
304.521
300.08
300.107
299.914
299.811
299.895
300
300
299.716
300
300
299.821
299.693
299.86
300
299.966
300
299.815
300
300
299.827
300.102
300
300.565
300.068
300
299.924
300
300
300
300
300
300
300.114
299.801
300
299.986
299.784
299.873
299.714
299.947
299.823
299.986
299.874
299.987
299.996
299.842
299.844
300.119
300.501
299.906
300.661
299.759
299.938
299.814
299.846
299.914
299.762
299.785
299.712
299.828
300.462
299.846
299.949
299.804
300.069
299.948
300.281
299.883
299.968
299.865
299.955
300.184
299.969
299.982
299.949
300.117
300.598
299.932
300.552
299.865
299.913
300
300.535
300.361
299.998
300
299.932
299.836
300
300.015
300
300.358
299.89
300
300
300.544
300.486
300.24
300.291
300
300
300.103
300.022
300
300
300
300.095
299.992
300
300
300
300
300
300
300
300.112
299.843
300
300
300
300.282
300
299.805
300
300.005
300
300
300
300
300
300
300
300
300
300
300.29
300
300
300.38
300.163
300
300
300
300
300.04
300.007
300
299.976
301.403
299.937
300
300
300.323
299.903
299.947
300
299.806
300
300
299.95
299.804
299.772
299.905
299.9
300
300
299.783
300
300
300
299.828
299.94
300
300
300
300
300
300
300
300.078
299.996
300
299.875
300
300.459
300.177
300.156
300
300
300.161
300
300
300.173
300.115
300
299.975
300
300.013
300.347
300
299.998
299.996
299.997
300
300.086
300
300
299.925
300
300
300
300.318
300
300.396
300
300
300
299.867
299.951
299.846
299.878
300.04
299.992
300.027
300
299.915
300.058
299.987
299.85
299.968
299.802
300
300
299.946
300.533
299.967
300.247
300
299.963
300.336
299.881
299.754
300
299.959
299.939
299.821
299.945
300.314
300
300.204
299.797
300
300
300.126
300.282
300
300
300.058
300
299.96
300
299.928
299.967
299.912
299.926
300
300
300
299.896
299.743
300
299.751
300.082
300
300.055
299.854
299.999
299.99
299.841
300.039
300
300
299.98
299.947
299.942
300.007
299.995
299.901
299.906
300
299.777
299.999
299.998
300
300
299.992
299.999
300.255
299.869
300.03
300.156
299.819
300.054
300.215
299.999
300
299.99
299.999
300
300.257
299.935
299.949
300
299.982
300
300
300
300
300.028
300
300.23
299.851
299.896
300
300
299.826
300.155
299.929
299.998
300
299.844
299.992
300.209
300.045
300.014
300.213
299.984
299.963
300.094
300
300
300.199
300
300
300.001
299.979
300
300.157
300
300
300
300.344
300.191
300
300
300.185
300
300.155
300
299.999
299.859
299.901
299.812
300
300
300.257
299.742
300
299.839
300
300
300
300
300.128
300.037
300
299.993
299.999
300
300
299.71
299.995
300.315
300
300.269
300
300
300
300
300.099
300
300
300.378
300
299.944
300
300
300
299.998
300
300.509
300
300
300.284
300.253
299.846
300
300
300
300
300.256
300.235