/*--------------------------------*- C++ -*----------------------------------*\
| =========                 |                                                 |
| \\      /  F ield         | OpenFOAM: The Open Source CFD Toolbox           |
|  \\    /   O peration     | Version:  2312                                  |
|   \\  /    A nd           | Website:  www.openfoam.com                      |
|    \\/     M anipulation  |                                                 |
\*---------------------------------------------------------------------------*/
FoamFile
{
    version     2.0;
    format      ascii;
    arch        "LSB;label=32;scalar=64";
    class       volVectorField;
    location    "0.25";
    object      U;
}
// * * * * * * * * * * * * * * * * * * * * * * * * * * * * * * * * * * * * * //

dimensions      [0 1 -1 0 0 0 0];

internalField   nonuniform List<vector> 
32842
(
(-0.0600578 -0.00337851 -0.189183)
(2.23465 0.11833 -1.14451)
(1.21416e-12 -7.0511e-14 -1.99605e-13)
(-4.6892e-13 -2.18311e-13 -1.08395e-12)
(-1.25596e-13 5.09813e-13 -9.46199e-13)
(6.33223e-11 -7.65913e-12 -2.28311e-10)
(-3.48864 18.9256 1.6192)
(-0.317096 -12.4207 2.59898)
(7.13383e-13 -4.77582e-13 -1.06098e-12)
(1.47799e-10 -1.36641e-08 -5.72381e-08)
(7.28502 32.8158 -1.04914)
(2.47865 -20.7796 6.69623)
(-0.000800614 -0.000203532 -0.00193367)
(-1.49181e-12 4.48045e-13 -9.87783e-13)
(2.8918e-14 1.03663e-12 -1.6081e-12)
(0.118898 -0.928656 0.0306549)
(-7.69377e-06 5.41319e-06 -3.09043e-05)
(8.27204e-10 -2.20786e-10 -8.07443e-10)
(-0.465756 -0.34199 -0.252757)
(-1.43453e-12 1.6317e-12 -1.27211e-12)
(-2.04115e-13 -7.27785e-13 -2.41735e-13)
(1.01987e-05 -1.95333e-05 -2.84216e-05)
(-2.87592e-13 -8.57498e-13 8.56056e-13)
(-6.44177e-13 2.77192e-12 1.4784e-14)
(1.18614e-05 -2.64926e-05 -7.99913e-05)
(1.06885e-12 1.29094e-12 -1.27105e-12)
(4.94957e-13 -1.23421e-12 -1.87154e-11)
(-4.28709e-13 -6.02875e-13 7.0382e-13)
(20.959 -2.77893 0.462439)
(0.00809014 0.0175197 -0.0344293)
(37.4961 0.559389 -0.489595)
(3.69429e-13 8.74895e-13 -4.75967e-14)
(4.76643 -18.0925 -2.3565)
(0.0727936 0.000342781 -0.136995)
(3.6916 -20.6928 -9.13944)
(-0.51082 -10.8968 -6.73984)
(-0.192833 -0.235228 0.129364)
(-0.00957977 -0.0589826 -0.0667775)
(0.00691471 0.115508 -0.406435)
(0.208876 -0.10657 -0.157984)
(-1.66087e-12 -1.84331e-12 -1.35583e-12)
(1.25824e-12 -1.2599e-12 1.51751e-12)
(1.74433e-13 -1.44159e-12 9.44865e-13)
(6.22497e-13 1.13032e-12 1.29399e-12)
(0.208616 0.331062 0.358031)
(-0.000868279 -0.00775639 -0.024594)
(-27.7625 -0.0610456 0.243361)
(0.117144 0.0747329 0.1493)
(-2.0063e-12 -3.73593e-13 -1.28007e-12)
(-28.0965 5.05631 5.20453)
(1.04549 -21.0606 1.8881)
(-1.39489e-12 1.33003e-12 -1.23211e-12)
(-0.00200956 0.010545 -0.0667231)
(25.6322 -0.606238 0.433821)
(-2.84466e-14 6.55396e-13 -1.60542e-12)
(-1.19794 -1.48394 5.78998)
(-1.25665e-12 7.50993e-13 3.56859e-14)
(4.55556 30.2004 -0.141979)
(-1.68345e-13 3.78148e-13 -7.74753e-13)
(2.55716e-12 2.41297e-12 7.04447e-13)
(-4.90334 -7.59177 5.15969)
(0.0829247 -0.0531922 0.211079)
(5.98504e-13 7.53732e-13 2.76202e-13)
(4.77315e-13 1.67229e-12 1.24008e-13)
(-0.198097 0.205424 -0.254959)
(-42.7607 -0.351162 -5.24273)
(2.00592e-13 2.67372e-12 -2.1632e-12)
(0.00585239 -0.108181 -0.383715)
(1.20534e-12 -1.32121e-12 7.79653e-13)
(1.60959 0.89354 2.25684)
(4.01497e-14 9.31915e-13 4.73122e-13)
(-11.8521 6.27755 0.942295)
(-3.13629e-13 -3.04516e-13 -1.85101e-12)
(4.73617e-13 -4.78489e-13 1.38652e-12)
(1.90632e-12 6.0577e-13 1.29275e-12)
(0.232829 0.281771 0.223062)
(28.5177 -2.76152 3.1063)
(2.61961e-12 -1.44283e-13 -3.22149e-13)
(-3.77165e-08 -1.11887e-07 -3.26251e-07)
(0.0155362 -20.2445 2.56238)
(-9.85312e-13 -2.47288e-13 2.14677e-12)
(1.02676e-12 -3.85409e-13 2.0311e-12)
(6.96446e-13 -9.87206e-13 -1.36589e-12)
(-5.33211e-14 -3.41593e-13 1.26663e-12)
(4.98169e-13 1.23375e-12 1.60921e-12)
(1.40745e-12 -1.26232e-12 1.35977e-12)
(-1.12681e-12 -1.45893e-12 6.22203e-13)
(3.30688 1.21467 4.02639)
(-4.42227 -20.4403 1.79986)
(-5.78713e-11 3.26098e-10 -1.60155e-09)
(-2.1455e-07 -3.46396e-07 -6.25355e-07)
(-1.32231e-12 -4.5476e-13 1.23748e-12)
(-24.0764 3.28634 2.76945)
(-7.45648e-13 -5.18514e-13 -1.30645e-12)
(-6.13051e-13 -6.80919e-13 -2.42814e-13)
(0.00252807 -0.286194 0.123435)
(1.45971e-07 -5.22146e-07 -5.02112e-07)
(-1.78867e-13 -7.81308e-13 -2.49115e-12)
(1.20999e-12 -7.84671e-14 3.69012e-13)
(-8.03948e-13 2.6879e-12 1.4438e-12)
(-1.06998e-12 -2.50278e-13 1.1302e-12)
(-0.329268 -0.190606 0.160766)
(-2.93254 1.37152 0.559062)
(20.6721 2.16558 4.91145)
(-1.09512e-06 -8.24198e-07 -1.75505e-06)
(-0.000318737 -0.00431222 0.000768497)
(-1.30357 18.2172 2.35485)
(-2.14786 1.33442 -1.41824)
(0.0896066 0.0763624 0.0759014)
(-0.497494 1.35692 1.58505)
(6.52221e-09 -2.80733e-10 -3.43972e-09)
(-1.66354e-10 -3.79758e-08 -1.22904e-07)
(6.27848 -36.4446 -10.8107)
(-7.01015e-10 7.30149e-10 -5.79492e-09)
(-2.72411 0.0176227 1.01226)
(7.90123e-13 -5.16721e-13 -1.72162e-12)
(4.41869e-13 1.37934e-12 4.77172e-13)
(5.44349 -4.34296 -13.5918)
(-2.25584 -0.297996 0.0685881)
(-0.188907 -0.058712 0.0974909)
(-5.07439e-08 1.23488e-07 -2.06834e-07)
(-4.71616e-09 -8.91623e-09 -1.21643e-08)
(3.37292 21.1892 2.24993)
(-4.35847e-13 2.56941e-12 1.62344e-13)
(-1.12961 -1.11468 2.46074)
(5.15787e-13 -2.88974e-13 -6.07025e-12)
(0.0583518 -0.258442 0.129083)
(0.243928 0.00303005 -0.209458)
(-2.8205 34.8902 3.93819)
(1.55801e-12 -1.21329e-12 -2.18779e-13)
(2.27193e-12 -1.04069e-12 9.99462e-13)
(-4.53213 -0.963293 1.44252)
(0.736504 -0.547878 -0.234874)
(-0.43479 -0.31835 0.0351585)
(0.522293 0.0678823 -0.13121)
(-0.755245 0.304646 -0.554915)
(-6.58349 -0.913801 2.69732)
(2.53172 3.11047 4.84672)
(-0.00369253 -0.126894 0.167782)
(-0.13243 -0.730192 0.239301)
(0.000781138 -0.000211938 -0.00124559)
(-0.0300106 0.0188129 -0.0495721)
(1.8974e-12 1.11949e-12 1.35039e-12)
(-4.37661 -5.68762 3.79077)
(0.338202 -0.146165 -0.478354)
(-0.00141561 0.00693073 -0.0321987)
(14.9198 -4.12397 -6.82466)
(0.00510702 0.00268573 -0.0462319)
(2.93121e-14 1.82677e-13 -2.00859e-13)
(3.51463e-06 3.28133e-06 -1.40924e-05)
(-0.963537 -1.34195 4.03239)
(-1.08019 0.526811 2.17769)
(2.92651e-06 -2.76034e-06 -7.87085e-06)
(3.61114 33.8975 1.15412)
(-0.76332 1.30593 0.631995)
(1.73528e-12 1.3519e-12 -3.27982e-14)
(1.43898e-13 -3.25322e-13 -2.92731e-14)
(-0.0319202 -0.0415465 -0.154638)
(-0.349949 0.116863 -0.247745)
(-1.95177e-10 -1.11004e-09 -2.06499e-09)
(-0.197817 0.0599857 -0.130749)
(-1.30894e-12 -2.89653e-13 4.70888e-13)
(-1.47904e-12 1.45336e-12 -1.97889e-13)
(-2.25271e-12 -1.19919e-12 5.871e-13)
(-0.32082 1.32815 -0.977178)
(0.0241264 0.0170736 -0.0428109)
(6.63763e-13 1.58154e-12 -8.44872e-13)
(-0.00140249 -0.00063109 -0.00539803)
(0.146919 -0.0133216 0.216968)
(22.2024 4.64762 -4.89742)
(1.59256 -0.73755 7.81148)
(-0.000352257 -0.0581428 -0.111206)
(-7.73164 -1.68478 13.8196)
(5.03486e-13 7.44322e-13 1.47631e-12)
(-4.78002e-13 2.31642e-13 1.1668e-12)
(-7.67792 7.24882 16.259)
(0.00643886 0.00202188 -0.00405698)
(-1.5948 -1.25242 2.20691)
(-3.39916e-13 6.70244e-14 1.13187e-12)
(-8.33026e-09 -6.32098e-09 -4.15747e-08)
(-0.172588 0.0356654 0.0991876)
(-7.84423e-05 4.14759e-05 -0.000108524)
(1.06655e-05 -4.24479e-05 -6.74587e-05)
(1.91339e-13 -4.42041e-13 -8.01226e-13)
(-8.27892e-13 2.87991e-13 5.59133e-13)
(-4.2035e-05 1.38781e-05 -0.000102879)
(0.0827873 0.147275 0.272945)
(-2.4061e-06 -4.70462e-07 -2.28369e-06)
(0.0116629 0.120335 -0.152286)
(-0.000179253 -0.000269252 -0.000756901)
(-7.9135e-05 -0.000112599 -0.000169424)
(1.94425 1.43968 1.50266)
(1.39756e-12 -1.17612e-13 -8.12943e-14)
(-5.07776e-13 -3.25916e-13 -1.18858e-12)
(-6.62553e-13 -2.78955e-13 -2.54627e-13)
(-0.0868977 -0.303525 -0.283212)
(-0.0106596 0.046131 0.0712)
(-0.0110325 -0.170235 -0.316838)
(5.45913e-13 -6.99128e-13 2.23334e-13)
(-2.69471e-07 -1.05659e-07 -5.2179e-07)
(-0.241212 0.0377173 0.325549)
(-0.0516952 -0.0771174 -0.359664)
(-1.68841 -0.369583 4.94581)
(-27.049 -1.4092 0.808987)
(1.71918 31.8681 -0.343482)
(-0.875523 -0.809673 -0.190656)
(0.190155 -0.220773 -0.133031)
(2.12002e-12 -1.82202e-12 2.28227e-12)
(7.22512e-13 -5.28626e-13 1.10299e-12)
(0.0052904 0.0356981 -0.159431)
(-0.117077 -0.15281 -0.22094)
(-0.378721 -0.746806 0.815449)
(2.6534 9.45844 16.6694)
(2.69737 7.9442 16.259)
(-6.00393e-06 -1.98808e-06 -2.47383e-05)
(-2.2309e-12 -6.13475e-13 -1.69143e-12)
(-0.0332037 -0.0851037 -0.384945)
(-0.0296081 -0.13509 -0.219033)
(-0.0564207 0.0119734 -0.0468823)
(0.15162 -1.15248 0.473949)
(-5.85494 -6.20794 -8.65985)
(1.36097e-12 2.50993e-12 2.21372e-13)
(-1.21629e-10 1.45441e-10 -1.04663e-09)
(-0.011549 -0.0538111 -0.091014)
(-0.0448102 0.181121 -0.120147)
(-0.124182 -0.557536 -0.776489)
(-1.19171e-14 6.47383e-13 1.47751e-14)
(6.67967e-13 8.67861e-13 -1.50686e-12)
(0.306103 -0.235034 -0.203083)
(2.47633 -35.5923 2.32681)
(-1.5674e-09 3.04115e-09 -7.32681e-09)
(2.57201e-08 -1.38253e-08 -1.09693e-07)
(0.295951 -0.109952 -0.298396)
(-1.49879e-13 -6.96261e-13 -1.5324e-12)
(-5.68818 -20.8021 19.1326)
(1.16257e-11 5.95296e-12 -1.29279e-10)
(-9.89361e-12 1.17199e-10 -2.58092e-10)
(0.616458 3.73425 4.22297)
(-0.090979 -0.129121 -0.392219)
(4.86307e-13 -1.79655e-13 -1.63363e-12)
(0.394797 23.3484 2.14256)
(1.48368e-06 1.27811e-05 -0.000256939)
(-0.0422978 -0.0667608 -0.240556)
(33.0877 3.34733 -0.0049625)
(0.247332 0.105092 0.186244)
(0.236432 0.316225 0.346087)
(-2.26926e-12 6.22577e-15 1.35155e-12)
(-1.77181e-11 -1.02616e-11 -1.72306e-11)
(-1.66439e-12 3.19793e-12 -2.83176e-12)
(7.03418e-06 -1.7896e-06 -1.27079e-05)
(-1.52624e-13 -8.37617e-13 4.61332e-13)
(4.08624e-12 -1.66727e-12 -1.24377e-11)
(0.0714228 0.978059 -0.839319)
(2.64613e-08 1.3778e-08 -1.51485e-07)
(0.0144677 0.0257579 0.264186)
(1.6447e-11 -5.76977e-12 -6.2112e-11)
(-6.44648e-05 0.000116521 -0.000579895)
(2.52653 5.60746 14.6145)
(-2.61938e-05 1.33639e-05 -2.89998e-05)
(0.0283895 -0.0198215 -0.0709348)
(1.0187e-10 -2.13646e-11 -1.83117e-10)
(-1.59838e-12 -2.45212e-12 -1.14951e-12)
(-7.06941e-13 1.52081e-12 -9.80195e-13)
(-9.01504e-13 -2.4612e-12 -4.76647e-13)
(-3.29823e-12 3.70674e-13 -1.80404e-11)
(-1.18981e-11 1.30322e-11 -2.92018e-11)
(-7.13141e-09 -1.77425e-09 -9.22222e-09)
(0.000180433 -0.00101682 -0.00106942)
(0.124526 -0.126921 0.162534)
(-1.59752e-12 1.15909e-12 9.44619e-13)
(6.30321e-11 6.23909e-10 -1.0826e-09)
(-3.9528e-12 7.1952e-13 -1.42188e-12)
(-8.06709e-11 5.20834e-11 -3.77457e-10)
(9.52856e-08 -9.28212e-08 -2.02342e-07)
(-5.18372e-11 3.05863e-11 -1.05311e-10)
(1.73248 -3.0916 9.87056)
(-0.184325 -0.215979 -0.12908)
(0.0489742 -0.0173318 0.293155)
(5.08873e-13 -1.2199e-12 -1.72121e-13)
(-0.00302966 0.0113715 -0.226269)
(-7.04025e-09 -2.28903e-09 -1.29706e-08)
(12.3382 16.1301 -12.9864)
(41.904 -0.528036 0.694502)
(1.52474e-12 -1.22933e-12 1.71835e-13)
(-0.320102 -0.256171 -0.210894)
(-0.675598 -1.73824 2.89521)
(9.18522 16.8898 -5.72924)
(4.63442e-13 -1.25817e-12 1.17641e-12)
(-1.10982e-11 -1.89341e-11 -1.40984e-10)
(-1.04885e-12 -4.7212e-13 -6.09058e-13)
(15.8954 2.23798 -9.67397)
(-8.37562e-13 -9.05544e-13 1.50453e-13)
(-1.44996e-12 3.77998e-13 3.95979e-13)
(-1.76092 28.8899 8.9111)
(1.99495 21.6393 -1.9178)
(-0.420692 -0.671131 1.46044)
(9.38572e-13 -1.36478e-12 1.1968e-12)
(-5.43689e-09 -1.32654e-08 -4.47849e-08)
(-0.196127 0.024474 0.229078)
(-1.43598e-12 -1.02952e-12 -3.00684e-13)
(-43.1447 39.1466 -19.0922)
(-7.05703e-10 2.82524e-10 -3.24218e-09)
(5.05217e-07 9.95854e-07 -4.25972e-06)
(-4.24631e-07 -5.25834e-07 -1.72385e-06)
(-1.64431e-12 -2.05859e-12 1.45342e-13)
(5.24459e-13 -2.75064e-12 3.47576e-13)
(1.69638e-12 -1.19469e-12 6.50972e-13)
(1.05008e-13 9.24052e-13 -2.73402e-13)
(0.0249985 0.0527136 0.0588312)
(2.16016e-08 -6.78964e-09 -4.93158e-08)
(1.94371e-06 -7.18807e-07 -1.34015e-05)
(1.82299e-14 1.04437e-12 7.67272e-13)
(-7.43905e-13 1.82464e-12 9.35465e-13)
(-2.32219e-07 -2.20163e-07 -4.2264e-07)
(2.63596e-12 1.64798e-12 -2.66957e-13)
(-6.34564e-06 -6.28042e-06 -1.59369e-05)
(-0.12113 -0.241563 -0.415417)
(-9.74352 -1.45196 23.6854)
(-5.95015e-09 1.38106e-07 -1.84619e-07)
(0.0114084 -0.00644587 -0.0507369)
(-0.0761148 -0.236444 -0.294218)
(0.892902 -24.1705 -0.850936)
(-3.40471e-07 -8.4797e-07 -1.65582e-06)
(8.0236e-13 -5.2835e-13 -1.20792e-12)
(-9.38377e-14 -5.43244e-13 -3.98695e-14)
(-4.97429e-08 -1.01738e-07 -4.46337e-06)
(-0.217588 -0.122814 -0.224978)
(-2.07736e-13 3.94768e-13 -1.60647e-12)
(0.0914707 -0.198893 -0.137673)
(5.82243e-14 -9.33663e-13 2.50673e-12)
(-0.0793078 -0.230277 -0.120319)
(7.87239e-13 -4.64881e-13 -2.87636e-12)
(1.34973e-12 -8.35401e-13 -5.73411e-13)
(-1.36487e-13 5.32463e-13 -8.04958e-13)
(0.00283033 -0.000323277 -0.00147821)
(-1.31592e-13 -1.56567e-12 -1.52344e-13)
(9.26767e-13 4.2498e-13 2.41561e-12)
(-9.02584e-13 -1.48053e-12 6.50216e-13)
(2.42562e-13 1.95711e-13 4.64484e-13)
(7.83437e-05 -5.32646e-05 -0.000146063)
(-0.00532202 -0.00651106 -0.00901493)
(-0.0059682 -0.0413436 -0.230811)
(-3.62808 -4.38924 1.73938)
(3.24354e-13 -3.16556e-12 -1.88791e-13)
(2.76638e-13 -1.96402e-13 -1.5086e-13)
(7.9439e-13 -9.23316e-13 -9.22686e-13)
(1.75074e-13 -2.3561e-12 -9.21666e-13)
(-1.89215e-12 -9.31229e-13 -1.42225e-12)
(1.40942e-13 -3.75443e-13 2.54712e-13)
(6.57991e-13 3.34012e-14 4.61442e-14)
(-0.248688 -0.186069 -0.495722)
(4.02105 24.1654 4.36326)
(-0.327079 0.517484 -0.184174)
(-7.34376e-13 5.65904e-13 1.16278e-13)
(1.02571e-08 -1.47161e-08 -1.88255e-08)
(-0.00331664 0.000588879 -0.00688719)
(-0.00133417 0.00201385 -0.00449037)
(-0.0624816 -0.379805 -0.42575)
(-1.66225e-07 -2.09501e-07 -4.39525e-07)
(-0.248585 -0.236729 -0.331513)
(-1.0556e-12 -1.59513e-12 1.43616e-12)
(-1.29994e-12 2.38389e-12 -1.42741e-12)
(-0.04025 -0.262753 -0.488175)
(-3.6245 22.8739 2.35657)
(3.44033e-11 -4.53869e-13 -1.45493e-10)
(7.46092e-14 -5.58831e-13 7.52299e-13)
(1.30499e-12 2.09872e-13 3.24555e-13)
(1.99523e-12 7.22411e-13 1.90801e-12)
(3.44647 -4.68384 0.917689)
(-8.43337e-13 7.18963e-14 3.00847e-12)
(-3.56516e-13 -6.17459e-13 5.68407e-13)
(11.44 13.9972 -8.3331)
(-0.00278405 0.00162768 -0.00337052)
(-0.530022 0.056816 -0.548531)
(-1.58334e-12 8.73665e-14 1.8633e-12)
(-0.235595 -0.132647 0.0975027)
(0.0262872 -0.282957 -0.29642)
(-1.04297e-12 -3.82349e-13 9.79506e-13)
(-2.6136 2.57168 1.45316)
(8.25188e-13 3.56117e-13 -2.3305e-12)
(-0.14773 0.333672 -0.179024)
(2.23871e-09 2.0608e-09 -2.91138e-09)
(-0.066467 -0.064923 -0.157073)
(0.0870751 -0.0528599 -0.211517)
(0.0535259 -0.0259577 -0.451877)
(-9.02861e-13 6.64503e-13 3.99395e-13)
(-9.12637e-13 1.25965e-12 9.28056e-14)
(1.04187e-13 5.92996e-13 -1.3409e-12)
(-3.41168e-13 9.89987e-13 -3.33808e-12)
(0.00127816 -0.00102991 -0.0048521)
(1.65186e-05 3.15721e-05 -3.7481e-05)
(-0.0286975 0.0533797 -0.0516948)
(-5.97558e-06 -1.90717e-06 -5.94654e-06)
(-3.54156e-13 1.94356e-13 -1.9762e-12)
(-0.197427 -0.183324 -0.521451)
(-9.0507e-13 4.60775e-13 -1.0031e-12)
(-0.21736 -0.0784696 -0.0806791)
(-0.0437706 -0.15723 -0.281167)
(-0.219929 -0.0954275 -0.34596)
(-1.00454 0.33326 1.19233)
(3.23356 6.54824 23.5124)
(-3.48592e-15 1.8963e-12 7.72055e-13)
(0.190356 -0.0620703 0.046909)
(-1.03187 1.25916 -2.28266)
(0.457357 20.9374 22.0095)
(0.22574 0.413956 -0.498173)
(0.195023 -0.00848503 -0.0703508)
(-0.157268 0.0999684 0.377045)
(-5.15109e-13 -1.69343e-12 -1.23048e-12)
(-0.0968005 -0.31183 0.175654)
(0.140659 -0.219624 0.19715)
(0.000828236 0.000660277 -0.0013707)
(-1.09627e-12 -1.88154e-13 7.54462e-14)
(-0.219721 -0.330235 -0.485914)
(2.75309e-05 -1.62408e-05 -0.000221238)
(-0.0309313 0.0943037 -0.186814)
(0.10602 -0.0957584 -0.0728184)
(-0.0838394 0.0968466 -0.213785)
(-0.181115 -0.821168 0.10188)
(-35.0506 -14.3291 -81.6011)
(-0.397747 0.390491 -0.350824)
(-0.116629 0.00997817 -0.299014)
(-7.76574e-13 3.74784e-13 -8.3774e-13)
(0.000237913 0.000150184 -0.00149276)
(15.389 19.2373 1.38777)
(1.62358e-12 6.77662e-13 3.3587e-15)
(-0.0112741 0.00609053 -0.0328116)
(-2.58884e-13 2.15945e-12 4.5609e-13)
(-0.529873 -0.704503 -0.921731)
(-1.66172e-12 -1.2086e-12 2.09183e-12)
(-0.13563 -0.0554412 0.193974)
(-2.3072e-12 -3.90536e-13 -2.71255e-13)
(-1.03097e-12 -1.49882e-12 -6.73061e-13)
(0.0698976 -0.2791 0.382819)
(2.4767e-12 -1.16325e-13 1.36003e-12)
(-4.84246e-14 -2.82106e-12 1.3629e-12)
(0.184799 -0.152194 0.00111718)
(22.1861 -11.2708 -4.24209)
(0.715403 32.3383 -3.18452)
(2.59398e-12 -8.89671e-13 -2.20021e-12)
(-2.03844e-09 2.28157e-09 -8.99037e-09)
(-28.9064 1.62911 1.18173)
(-0.15182 -0.142196 -0.324747)
(7.66478e-14 1.40261e-12 -1.46403e-12)
(-3.71013e-06 9.2835e-06 -3.87463e-05)
(-0.0661457 -0.130968 0.114187)
(6.66665e-13 1.09144e-12 1.57912e-12)
(-4.80296e-13 -4.48059e-13 -1.93798e-12)
(1.06816e-12 -1.60458e-12 1.22258e-12)
(-2.70927 0.336885 -3.37262)
(1.45477e-12 -5.82451e-13 -6.79339e-13)
(0.16472 -0.240137 0.168909)
(-0.498495 0.339933 -0.174107)
(0.432017 32.0544 -3.53078)
(1.63279e-12 -8.34086e-13 -1.53574e-12)
(0.274764 -0.0740273 -0.169523)
(0.146639 -0.0323534 0.144876)
(2.26141e-12 7.05947e-13 -1.90608e-13)
(-0.823899 0.392842 1.04027)
(-0.0966455 -0.0028167 -0.0948525)
(-1.02674e-12 5.18605e-13 7.1389e-13)
(-3.05396e-12 -5.53057e-15 -1.31416e-12)
(1.27261e-12 -3.78477e-13 -7.94712e-13)
(-2.48427e-12 8.83661e-13 9.39174e-14)
(1.09908e-12 1.29233e-12 -1.8707e-12)
(-1.13392 0.635792 -0.108372)
(0.00111787 -0.00295313 -0.017421)
(5.96906e-13 1.06392e-12 9.1434e-13)
(0.00877691 0.00252475 -0.00560431)
(1.09321 2.89326 -0.151439)
(1.73429e-12 2.17317e-13 -5.72889e-13)
(-3.05132e-13 5.40996e-13 -9.42845e-13)
(-6.69921e-14 -1.42013e-12 8.54212e-13)
(1.48111e-12 -3.645e-13 -8.62751e-13)
(-0.144696 -0.0390559 -0.112844)
(-7.51776e-13 -4.28555e-13 1.13521e-13)
(1.72173e-12 2.10471e-13 -2.96638e-13)
(1.96493e-12 7.7295e-13 -1.12792e-12)
(5.99185e-14 4.84821e-13 1.23255e-12)
(8.13135e-13 -2.15126e-13 7.91721e-13)
(8.44721e-13 9.64688e-13 1.94579e-12)
(-7.9156e-13 -7.5421e-13 -3.42287e-12)
(-0.0275081 -0.0295188 0.206145)
(-24.3051 -0.192332 4.29329)
(1.04271e-12 -4.31181e-13 -7.13209e-13)
(2.13583e-07 1.46807e-07 -5.07322e-07)
(-2.86544e-12 -1.01229e-12 6.71134e-13)
(-6.78071e-13 -9.37716e-13 -9.89027e-13)
(1.61749 1.65825 -1.14697)
(-2.07003e-12 2.8372e-14 6.57669e-13)
(0.259543 0.163929 0.197585)
(0.75271 4.56219 -0.119053)
(-8.0713e-13 7.76085e-13 3.49718e-12)
(-1.68605 -1.07204 -0.20908)
(0.106689 0.0280102 0.072701)
(8.4064e-13 -6.88761e-13 9.18385e-13)
(-3.53412e-09 1.22309e-09 -8.83762e-09)
(-1.65041e-12 5.01543e-13 1.4009e-12)
(1.9346 5.42928 1.56781)
(-0.0145359 0.0611465 0.0563676)
(0.000305854 -0.000972127 -0.00147423)
(5.75434 18.3004 10.0491)
(-1.16706 -1.0732 -0.0909642)
(-1.17526e-13 -1.09763e-12 -7.18593e-14)
(0.180641 0.0702478 0.0139567)
(4.08597e-13 3.96983e-13 -1.46974e-13)
(-5.14119e-13 1.73959e-12 -3.13478e-13)
(7.07166e-10 -6.19789e-10 -1.87412e-09)
(7.57048 14.5503 8.80388)
(-0.0994415 -0.106853 -0.196055)
(-0.00058532 -0.0024349 -0.00271189)
(1.67959e-12 -1.35855e-12 1.35133e-12)
(0.0106321 -0.214642 0.0886245)
(-0.104898 -0.248278 -0.231186)
(0.00121933 -0.00248735 -0.00761353)
(1.12184e-12 2.29472e-13 -1.5392e-13)
(-0.116975 -0.336563 -0.353268)
(-0.305718 0.177436 -0.333948)
(-2.38484 23.2441 5.4068)
(0.730802 19.6798 3.26592)
(-4.61265 30.0155 -2.21294)
(14.931 5.41616 6.94003)
(-0.459109 14.3388 11.3252)
(-1.7739 9.80966 11.6849)
(-0.094898 30.0047 2.92698)
(0.00886989 0.00555745 -0.0101257)
(-0.147511 -0.0562879 -0.0751521)
(2.29046e-05 2.3374e-05 -1.75539e-05)
(0.0882277 -0.116648 -0.186969)
(-1.35443e-12 -5.65657e-13 1.04371e-12)
(26.2893 -1.39589 3.62075)
(-1.0139e-12 -7.92091e-13 -1.29904e-12)
(-3.15183 4.37651 1.43425)
(-0.331461 0.0657922 -0.482793)
(-5.30546e-08 3.40948e-09 -3.83461e-07)
(-4.26306e-13 -4.55938e-14 2.73853e-12)
(-30.2269 3.8492 -1.26249)
(-7.91166e-13 -3.21998e-13 -1.60525e-12)
(2.51138 -12.5613 -10.4859)
(-25.8527 -2.32641 0.0106404)
(-0.603092 0.684931 0.770566)
(-1.83921 29.7261 2.12846)
(1.5495 1.43407 0.871393)
(0.770195 8.06205 10.6845)
(0.000153284 -4.99068e-05 -0.000564083)
(-6.8173e-13 9.30983e-13 9.85587e-13)
(-0.566082 0.374257 -0.223992)
(-2.25159e-09 -2.2319e-09 -5.67253e-09)
(17.2347 23.5449 21.753)
(-2.60482e-12 -7.92226e-13 -1.72452e-12)
(8.80819e-13 1.11566e-13 1.84792e-13)
(-0.0632521 -0.0500674 -0.190741)
(3.24124 20.3298 -1.1747)
(0.000211579 -7.04305e-05 -0.00024188)
(-0.0599154 -0.000424998 -0.0753042)
(-0.161758 -0.11509 -0.0432076)
(1.03949e-07 4.10608e-06 -5.89937e-06)
(-4.23434e-13 -8.99448e-13 -1.62896e-12)
(1.39863 23.1828 -2.30194)
(1.17228 22.7293 -1.27495)
(4.2462e-13 -1.53065e-12 3.79174e-13)
(-9.14036e-14 -3.35839e-13 -9.43563e-13)
(-0.5995 0.717512 0.888228)
(0.0596104 -0.0204605 -0.482349)
(0.32603 24.4938 -1.86675)
(2.09282e-13 4.36041e-15 6.24793e-13)
(0.033041 -0.20291 -0.0575922)
(-1.0802e-07 -6.14488e-08 -2.86496e-07)
(1.36407e-12 -6.09317e-14 4.92229e-13)
(-5.17397 31.8667 -1.86076)
(-2.41324e-09 -2.3014e-09 -5.41536e-09)
(-0.0750728 -0.104648 0.0327722)
(-4.54561 32.631 7.04695)
(9.31711e-14 -1.24291e-12 2.5831e-12)
(5.5245e-13 -1.41771e-12 -1.37941e-12)
(1.45902 14.637 -4.54257)
(-0.189825 -0.264215 -0.330808)
(-0.00336422 0.0995265 0.0941036)
(0.31092 31.6511 -6.04604)
(4.68965e-13 -3.24286e-13 -1.05905e-12)
(1.32992e-12 1.71736e-12 2.23604e-13)
(-4.65452e-13 2.56802e-13 5.59482e-13)
(2.57448 3.58789 2.35577)
(-6.01767e-10 -5.35822e-10 -2.13972e-09)
(-6.10088e-13 8.55689e-13 2.44817e-12)
(-1.40764e-12 9.93424e-13 1.35384e-12)
(0.00221796 -0.0164679 -0.03401)
(-0.00844434 0.0405368 -0.187291)
(-0.287701 0.536746 -0.351221)
(4.38557e-13 -3.64721e-13 1.75442e-13)
(-4.10419e-06 4.42363e-06 -2.02729e-05)
(1.1276e-12 -1.13964e-12 -4.83134e-13)
(-0.410628 -0.232672 -0.401075)
(-2.00579 33.6906 -2.87585)
(2.41401e-13 -1.19115e-12 -1.16542e-12)
(-0.449716 -0.0652194 -0.667954)
(-2.1578 29.1499 2.20922)
(-0.334611 0.0719468 -0.300267)
(-4.76461e-13 2.86225e-13 -2.03638e-13)
(3.00725e-08 -2.71049e-08 -8.77225e-08)
(-1.68634 30.3029 0.198909)
(-3.13039 30.9693 2.02387)
(-2.03756 19.3102 -2.04218)
(-0.137486 -0.336604 -0.311037)
(-24.4866 -5.46166 9.46557)
(5.93791e-13 9.37024e-13 1.3783e-13)
(-21.7083 -1.84515 3.09545)
(2.08976 3.15079 1.95107)
(-23.4501 -2.23516 1.47633)
(1.04203e-12 2.22992e-13 -2.18299e-12)
(-8.8397e-10 -7.70184e-10 -2.81531e-09)
(1.47853e-12 -1.54843e-13 3.66784e-13)
(-2.84848e-13 -8.8423e-13 4.8988e-13)
(5.36331e-14 -2.11383e-12 3.14959e-13)
(-28.9484 -0.31489 1.4218)
(-1.15372e-12 4.15031e-13 -1.11066e-12)
(-0.000900848 0.00252772 -0.00782161)
(-5.39197e-14 -1.27972e-12 7.91247e-13)
(0.00804048 -0.00287531 -0.0304689)
(-4.69037e-13 4.58508e-13 -1.01679e-12)
(-0.169534 -0.256702 -0.403044)
(-7.9705e-06 -2.34898e-05 -9.17602e-05)
(-0.891599 0.406796 0.0376877)
(-30.9682 -2.96759 -1.10117)
(3.16581e-13 -7.18473e-13 -4.55656e-13)
(-0.110928 0.172676 -0.149966)
(1.36194e-12 -1.8403e-13 5.83019e-13)
(-0.334807 -23.8222 -2.69648)
(-30.4697 -2.03695 2.03677)
(5.70608 0.624651 8.18514)
(-0.0931752 -0.26343 0.280064)
(-27.4125 -1.52361 -0.562584)
(-7.26327e-10 -1.0154e-10 -1.29261e-09)
(4.30696e-15 -6.01647e-13 -2.02912e-12)
(0.0245741 -0.116257 -0.518613)
(-28.313 -0.963048 3.03656)
(-9.61669e-13 -1.60339e-12 -3.94154e-13)
(7.53666e-13 3.1426e-13 7.87202e-13)
(0.00231806 0.00207651 -0.00444203)
(2.72054e-12 -9.49253e-13 1.58378e-12)
(-28.9278 -0.540169 -0.210276)
(-8.27204e-13 1.05502e-12 6.03938e-13)
(7.24923e-13 1.04215e-13 1.34011e-12)
(-1.14289e-12 7.59658e-13 -9.4676e-13)
(1.86678e-10 1.36065e-10 -1.57974e-09)
(3.00964 0.317249 -1.71694)
(1.85745e-12 7.33317e-14 3.27655e-13)
(3.1102e-13 -4.55438e-13 -5.20543e-13)
(-26.7279 -2.53085 -0.489912)
(-26.1971 -5.46502 2.14633)
(0.236427 -0.0380583 0.78759)
(8.42571e-08 9.4611e-08 -1.23606e-06)
(1.14917e-09 -2.36411e-09 -3.11486e-09)
(-6.67192e-13 1.35697e-12 2.57992e-13)
(-0.140844 0.297658 -0.355734)
(-1.71302e-12 -1.69998e-12 1.12817e-12)
(5.14442e-13 -2.93025e-14 1.2568e-12)
(-7.93252e-08 -2.23628e-09 -1.5274e-07)
(1.96427e-12 1.21691e-12 -1.04384e-12)
(-1.0511e-12 -4.62679e-13 -9.67733e-14)
(35.1477 0.0545864 -2.53906)
(44.7342 -0.262908 -2.35467)
(-2.13364e-12 9.87983e-13 -1.16403e-12)
(4.09335e-07 -2.72113e-08 -3.9579e-06)
(34.3839 0.818593 -2.00483)
(-0.278647 0.478412 -0.547776)
(3.83408 3.26777 2.07862)
(0.012012 -0.0188082 -0.0393677)
(9.74347e-13 9.7351e-13 -9.61487e-13)
(0.00163411 -0.00440366 -0.0304691)
(0.226432 -0.268221 0.381765)
(1.98337 0.702071 0.638291)
(0.0417409 0.0288086 -0.962023)
(28.2692 -0.874011 -1.83747)
(-1.03334e-12 -4.23551e-13 6.22954e-13)
(35.9208 -1.24597 4.95506)
(-2.41769e-11 2.68725e-10 -6.29173e-10)
(2.19362e-12 -1.0581e-12 -1.56381e-12)
(29.0728 -3.73446 1.42756)
(40.5535 -0.928021 -2.62878)
(-6.8995 2.3917 11.2132)
(3.2438 2.91462 6.43894)
(-7.44286e-13 -2.96596e-15 9.8707e-13)
(3.22148e-07 -3.9378e-07 -1.61653e-06)
(-2.12462e-12 -1.16158e-12 8.9562e-13)
(-1.72021e-13 -9.84952e-13 -6.46834e-13)
(35.0936 -2.01501 -2.20576)
(5.33442 23.1522 0.0974665)
(40.0508 0.398679 -4.72891)
(43.3623 -2.32188 -3.64785)
(-1.54248 -0.29257 1.03399)
(4.6794 1.84175 1.14213)
(45.1686 1.23866 -4.84609)
(-1.90779e-10 5.91196e-10 -1.25568e-09)
(-23.2723 3.91002 -1.07213)
(0.146801 -0.254968 -0.076824)
(-0.0339409 -0.183461 -0.345995)
(-0.525784 -0.856017 -0.333061)
(4.61875 31.5953 10.5071)
(-8.05016e-13 -6.58751e-13 9.91914e-13)
(0.305108 0.0718917 0.348939)
(1.1644e-10 1.96724e-10 -1.96884e-10)
(-4.91493e-05 2.86743e-05 -0.000228635)
(0.282495 -0.0436035 -0.467289)
(1.02303e-13 2.64458e-13 -6.12298e-14)
(-0.147494 0.377111 -0.264692)
(6.56942e-13 1.91967e-12 8.67594e-15)
(-4.88988e-13 1.85107e-13 5.23904e-13)
(0.17691 0.294696 0.0738532)
(6.78123e-13 -8.14357e-13 -9.58225e-13)
(0.121185 0.0449118 0.253317)
(-1.12139e-12 1.35376e-12 1.59886e-13)
(-0.00901347 -0.0447549 -0.0300833)
(-1.2139e-08 6.73795e-08 -7.32402e-08)
(-0.293569 -0.120636 -0.086529)
(-0.0420026 -0.0156425 -0.0325948)
(-0.0617405 0.150111 0.342808)
(1.75001e-12 5.73602e-12 -8.54989e-12)
(0.0910448 -0.0809828 0.0682049)
(0.209969 -0.00481585 0.229458)
(-0.0003952 -3.97596e-05 -0.000649966)
(0.225515 0.125475 -0.317797)
(6.81442e-13 4.07138e-13 -4.41829e-13)
(-0.10966 -0.966084 -0.617699)
(-0.102171 -0.421343 -0.227191)
(0.000551968 -0.00387688 -0.0194123)
(0.00830935 0.0961893 -0.131333)
(-0.00444432 -0.0152302 0.0983367)
(-0.000571405 -0.25472 -1.09384)
(-9.18486e-13 2.69583e-12 -2.62555e-12)
(-0.0180436 -0.1286 -0.223324)
(2.36981e-14 1.47887e-12 4.39934e-13)
(-1.43767e-12 -6.69939e-13 -1.22093e-12)
(4.73424e-13 -2.2291e-12 -6.77503e-13)
(0.000204807 0.162924 0.147717)
(0.397787 0.271621 -0.183956)
(-1.2142e-12 -1.34875e-12 -1.21304e-12)
(-0.00787326 0.0039986 0.171855)
(-0.107049 -0.259589 -0.160425)
(-0.404545 -0.0716257 -0.637238)
(0.822581 29.2311 0.0634936)
(-1.88457e-13 3.21629e-13 1.72862e-12)
(-0.0536746 0.00762912 -0.316281)
(8.09029e-05 -0.000309274 -0.000652827)
(-5.30334e-13 -8.61179e-13 -2.42084e-12)
(-1.15571e-12 -8.24017e-13 -5.60115e-13)
(4.05102 -0.848099 2.03312)
(0.160028 0.140207 0.291303)
(0.0609482 0.104459 0.271075)
(0.112274 0.0704159 -0.166225)
(-1.08786e-12 5.21384e-13 1.23303e-12)
(2.68484e-07 -1.21436e-07 -6.02961e-07)
(0.119175 -0.306812 -0.140778)
(0.000378174 0.000493965 -0.00261183)
(-0.225677 0.0821083 0.400215)
(0.0753609 -0.039071 0.264438)
(-0.0241775 -0.137532 0.283791)
(-3.8111e-12 -1.80928e-12 -5.36456e-13)
(5.98213e-13 -5.39431e-13 -1.04743e-12)
(14.9799 30.4746 2.1096)
(6.43728 36.6827 8.62734)
(-0.0233861 0.00494996 -0.0586624)
(-0.0893887 -0.122452 -0.462706)
(5.26137e-13 1.94014e-13 -1.39587e-12)
(2.69667e-06 2.85605e-06 -6.81383e-06)
(-1.6685e-12 2.60045e-13 6.04826e-13)
(0.000206233 -0.000236934 -0.00103682)
(-0.0430505 -0.0117096 0.0928057)
(-0.0923979 0.103058 0.294733)
(0.203755 0.091085 -0.439538)
(30.5617 6.25959 2.19162)
(1.66511e-12 -3.98814e-13 -1.11931e-12)
(1.8482 0.293417 1.95661)
(-2.14009e-13 1.39212e-12 -1.49935e-12)
(-0.225904 0.19046 0.519231)
(0.0202754 0.028353 -0.0285262)
(0.649239 2.01409 1.32346)
(2.00001e-12 9.8648e-13 -4.9693e-13)
(-0.205137 0.201827 0.382281)
(-0.134477 0.23789 0.259854)
(1.08359e-10 -6.26777e-12 -9.1676e-11)
(-0.2214 0.394939 -0.191965)
(3.06569e-08 -8.76805e-09 -2.03553e-07)
(-0.0166405 -0.0571087 -0.551713)
(-0.0964502 0.00434831 -0.435048)
(1.72449e-13 -4.12326e-13 8.7808e-13)
(-9.08486e-08 -6.86137e-09 -3.36724e-07)
(-0.0568783 0.0326129 -0.386977)
(-7.10086e-10 -5.40362e-10 -1.44106e-09)
(0.088875 0.0481088 -0.060225)
(-1.51084e-06 -4.38501e-05 -0.000137279)
(-1.61612e-11 1.6811e-11 -1.71043e-10)
(34.3752 -1.76849 -4.55608)
(-0.0867886 0.11252 -0.682153)
(0.145639 -0.14472 -0.617063)
(-0.965777 41.0124 -5.5191)
(6.89577e-15 -1.40162e-12 9.34683e-13)
(-0.0434206 -0.0394648 -0.10826)
(0.161129 0.565103 -0.683046)
(1.10072e-09 1.69665e-09 -1.93443e-09)
(-1.41775e-06 1.65335e-05 -3.8359e-05)
(-5.15636e-13 -1.69416e-12 4.29133e-13)
(0.0590721 -0.0139099 -0.443616)
(-0.146468 -0.00615532 -0.436358)
(0.269811 0.177656 -0.434049)
(6.00845e-07 -1.0076e-06 -7.43619e-06)
(-3.46373e-13 8.70743e-13 -1.33244e-12)
(0.208977 0.120567 -0.4426)
(0.201755 -0.131717 -0.260472)
(-0.0516554 -0.0373896 -0.0860396)
(-5.13659e-05 3.80175e-05 -0.000143131)
(0.667118 -0.737256 -0.953997)
(2.18349 -0.855905 -3.77273)
(-0.0644671 -0.0632116 -0.111351)
(-0.194661 0.312487 -0.260659)
(-0.000456595 0.000398542 -0.000527)
(-7.04945 2.44436 -3.5471)
(-0.200055 0.171267 -0.123492)
(-0.22387 0.188779 -0.459454)
(-3.00674e-13 4.57405e-13 -3.80888e-13)
(4.72156e-07 6.8455e-09 -7.74514e-07)
(1.52556 1.64701 2.74272)
(-2.32384e-07 -7.39224e-07 -1.55847e-06)
(-0.443216 -0.793966 -0.207272)
(-0.00603199 0.00113027 -0.0061952)
(-1.34879e-12 4.4099e-13 -2.29895e-13)
(7.21071e-12 2.37963e-11 -5.87799e-11)
(-0.00554151 -0.0736052 0.0672498)
(-2.42738e-12 -7.24755e-13 -8.7456e-13)
(1.78657e-12 -1.73132e-12 -8.42032e-12)
(0.5 1.49062 1.39742)
(-1.6262e-05 -1.13949e-05 -4.80502e-05)
(9.55338e-13 6.91113e-13 5.01433e-13)
(0.397148 3.07876 35.5506)
(-0.00187669 0.000108234 -0.00546919)
(24.9647 1.09904 -0.562598)
(-0.340534 -0.478446 -0.18541)
(0.00188469 0.0129614 -0.0212997)
(-1.07915 -0.768437 0.505824)
(0.572005 1.25446 1.19891)
(-0.203964 0.0943218 -0.265124)
(0.103582 0.136999 -0.223128)