/*--------------------------------*- C++ -*----------------------------------*\
| =========                 |                                                 |
| \\      /  F ield         | OpenFOAM: The Open Source CFD Toolbox           |
|  \\    /   O peration     | Version:  2312                                  |
|   \\  /    A nd           | Website:  www.openfoam.com                      |
|    \\/     M anipulation  |                                                 |
\*---------------------------------------------------------------------------*/
FoamFile
{
    version     2.0;
    format      ascii;
    arch        "LSB;label=32;scalar=64";
    class       volScalarField;
    location    "0.35";
    object      alphat;
}
// * * * * * * * * * * * * * * * * * * * * * * * * * * * * * * * * * * * * * //

dimensions      [1 -1 -1 0 0 0 0];

internalField   nonuniform List<scalar> 
32842
(
0.000793923
0.000792839
0.00079367
0.000793659
0.0013952
0.000793659
4.4249
4.84413
0.000793659
0.00079365
0.864101
1.25962
0.000791917
0.000793659
0.000791546
0.000793792
0.000793056
0.000793658
0.000794672
0.0013754
0.00146907
0.00152161
0.00134573
0.000793671
0.00135406
0.000793659
0.000793659
0.00115111
0.384414
0.000793666
1.47432
0.643309
18.3445
0.00079264
28.0765
8.02859
0.00162653
0.000796808
0.000792369
0.000793574
0.000793664
0.00146336
0.000793659
0.000793659
0.446227
0.000793176
2.49078
0.000791574
0.00143861
0.0937329
3.58556
0.000793659
0.80172
0.200775
0.000793667
0.0108868
0.000793659
0.31762
0.000793662
0.000793659
4.02303
0.770394
0.859029
0.00147451
0.000792703
11.4411
0.000793662
0.952308
0.595721
0.000795146
0.00113607
4.64236
0.677684
0.000793659
0.000793659
0.000787703
0.174729
0.000793659
0.676542
1.18475
0.0013871
0.000793659
0.000793659
0.753121
1.06002
0.000793659
0.000793659
0.0058939
0.155724
0.000793655
0.00139518
0.00142836
9.90576
0.000793232
0.000793659
0.00079253
0.657435
0.00079221
0.978116
0.000793659
0.000793659
0.00195389
0.000795995
0.571215
0.672257
0.613042
1.07537
0.000734679
0.715878
0.000793104
0.000793655
0.000793636
4.56361
0.000793655
0.000795409
0.0014491
0.738431
0.986216
0.000796041
0.000792383
0.000793604
0.000793653
0.00271392
0.000793669
0.000726815
0.669772
0.534759
0.000792604
8.32469
0.000793667
0.000793659
0.000754735
0.00227189
0.668078
0.00233963
0.000794573
0.00424011
0.147032
0.000792449
0.000793813
0.720875
0.000793181
0.717925
1.56415
0.000793306
0.000793368
19.696
0.000793613
0.000793659
0.000793253
0.000813947
0.227951
0.00126778
2.18417
0.000792866
0.000793659
0.000793659
0.000793614
0.000794335
0.000793656
0.000794081
0.000793659
0.00133744
0.000793659
0.000791959
0.000792886
0.000793659
0.000792819
0.000794659
3.11267
2.62648
0.00192461
3.91764
0.000793659
0.00148898
1.0402
0.000792183
0.000796649
0.000793659
0.000793643
0.00129301
0.000792978
0.000792937
0.000793659
0.743055
0.000792984
0.68265
0.000793418
0.000792517
0.000792091
0.00079233
0.119772
0.583889
0.000793659
0.606666
0.000791644
0.000791717
0.000791611
0.655517
0.00079358
0.000791834
0.000796973
0.128538
3.06242
0.979687
0.00448467
0.000792947
0.00146923
0.610798
0.000793352
0.000792989
0.000809111
3.8022
3.71582
0.000793163
0.000793659
0.000793333
0.000792993
0.000793957
0.000793544
0.0968574
0.000793659
0.000793656
0.000794076
0.00186968
0.513602
0.000793666
0.633194
0.000792482
4.01786
0.00079365
0.000793645
0.000790869
0.000793659
3.67777
0.00137211
0.00139414
0.092602
0.000792525
0.769628
0.0801845
0.000793166
0.000793597
4.24865
0.000791788
0.000792657
0.813199
0.00079366
0.000793659
0.000793449
0.000793659
0.000793659
0.00079399
0.657318
0.000790507
0.000793659
0.000792748
3.21218
0.000793238
0.000792786
0.000793658
0.000793659
0.000793659
0.000793665
0.501068
0.000793659
0.00079365
0.000791871
0.000795047
0.000793667
0.000793656
0.661947
0.000793658
0.506616
0.000793659
1.3273
0.000793889
0.0018246
0.000793659
0.000793685
0.000793654
14.1278
9.68381
0.000793659
0.000793762
0.00565768
9.47544
0.000793659
0.00146969
0.000793659
17.3803
0.000793665
0.59255
6.90431
0.256894
0.000764713
0.58782
0.000793643
0.000790729
0.00132733
2.07917
0.000793665
0.000793373
0.000793581
0.000793659
0.000793659
0.000793659
0.000793659
0.000791122
0.776942
0.00079345
0.000793659
0.765095
0.000793623
0.000793659
0.000793346
0.000793069
2.66912
0.000793607
0.000793747
0.000793786
0.0796466
0.000793524
0.00099051
0.000793668
0.000793449
0.000793712
0.000793667
0.000792523
0.000793659
0.000793776
0.692905
0.000793659
0.000793659
0.000792208
0.000793659
1.2923
0.598245
0.000793659
0.000793039
0.000792351
0.000793867
0.00138415
0.000793659
0.773782
0.000793659
0.000793659
0.624315
0.890867
0.711146
0.000802619
8.97443
0.000794017
0.655196
0.000793654
0.000791308
0.00172672
0.000793453
0.000793617
0.000792653
0.000793659
0.000793659
0.000792371
1.58327
0.000793659
0.000793299
0.000793659
0.000793659
0.555012
0.00130272
0.000793659
12.7686
0.000792713
0.00212707
0.000793659
0.717564
0.00182389
0.000793659
0.000275158
0.00134771
0.000793202
0.786319
0.674246
0.000793176
0.000792705
0.000793669
0.000793659
0.000793659
0.000793659
0.000792838
0.000793221
0.000792423
0.000793277
0.000793659
0.000793832
0.000793659
0.000793326
0.000794248
0.000794101
0.000792815
0.159185
0.000793659
0.000793045
0.000793502
3.94355
0.000794442
0.00079232
0.00198359
0.000793659
0.0016016
0.526967
0.000792657
0.000793659
0.0007932
0.000792934
0.000793519
0.000793614
0.000793566
0.000794768
11.0666
0.000795265
0.675805
0.000793659
0.00157046
4.8526
0.000793659
0.000793621
0.000793659
0.000742574
0.000793664
0.000789393
0.000793659
0.000793659
0.688646
0.00138482
1.31093
0.000792874
14.4987
2.07327
0.730498
0.00146306
0.713042
0.00153785
0.744483
0.000793358
0.000792648
0.00105463
0.000793667
0.00128706
3.50004
0.00079367
0.000791218
0.000797746
12.4774
0.00125078
0.000792238
0.000793059
0.00141847
0.000792225
0.000798804
0.000792806
0.00151348
0.000793659
0.000793661
0.000793659
0.000792182
0.000793362
0.749334
0.000792299
0.000795067
0.000793659
0.00152394
0.00140523
0.000793659
0.000792707
0.75352
0.699911
0.000793659
0.000793666
0.000793659
0.000793659
0.00138875
0.000792445
0.0492131
0.751667
0.000793571
0.000793667
0.958246
0.000800095
0.000793659
0.00166724
0.000796765
0.00107027
0.000810456
0.709093
0.00148129
0.570198
0.754463
0.000773788
0.000790926
0.00165328
5.34534
0.000792564
0.706535
0.00183905
0.974172
0.00125136
0.000793657
5.06519
0.00168433
0.000792612
0.680857
0.000790974
0.661714
0.000792822
0.000793666
0.00186025
0.00207232
7.82195
3.90402
0.551468
2.66976
5.36125
4.43464
10.6274
0.73037
0.000792756
0.000793104
0.000792826
0.752844
0.377408
0.878717
1.17381
0.000795375
0.000793565
0.00126515
0.325325
0.000793673
4.49675
0.478062
0.000796141
1.33941
0.000520624
4.70345
0.000792934
0.000793659
0.000794458
0.716876
2.17465
0.000793659
0.00153582
0.000793913
0.222954
0.591897
0.000793396
0.000793596
0.000793348
0.000793659
0.0573132
0.13021
0.000793659
0.000793659
0.000794217
0.655443
0.21093
0.943265
0.00079365
0.000793585
0.000793659
2.52793
0.764052
0.572249
1.40034
0.584167
0.000793659
8.71511
0.585742
0.000792763
3.99422
0.00079366
0.00139276
0.000793659
0.000775521
0.00140434
0.0013489
0.000793659
0.000792993
0.000793345
0.00079421
0.761971
0.00148881
0.000793664
0.000793733
2.47482
0.000793659
0.00312485
1.77299
0.904959
0.000792555
0.000793632
1.57339
1.55732
10.7605
0.0007925
10.822
1.08425
0.14138
0.000798273
0.308802
0.000793664
0.000793656
0.00079367
0.000793659
0.000793659
0.2094
0.00142351
0.000792831
0.000793659
0.00079326
0.000793659
0.000791448
0.000793276
0.000794642
0.0442009
0.932273
0.000795009
0.000793659
0.0862906
0.314856
0.228053
0.00079118
0.177646
0.000793656
0.000793659
0.000795342
1.56454
0.68061
0.000793659
0.00162613
0.000793659
0.440417
0.000793659
0.000793659
0.000793664
0.000793668
0.266266
0.000793659
0.000793659
0.798056
0.143834
0.000780312
0.000793572
0.000793655
0.598865
1.0649
0.000793659
0.686762
0.00137158
0.000793659
0.000793659
3.8404
7.51107
0.000793659
0.962239
3.70027
0.000794965
0.301502
0.000793267
0.000793659
0.00175122
0.00170157
0.000850801
0.000793282
2.74619
0.000793659
2.53604
0.000793658
0.000793659
1.96711
4.88923
1.13481
0.255872
0.000793659
0.000793538
0.00130063
0.00135589
2.68711
0.378202
6.1509
7.37926
0.000792364
0.00079472
9.00093
0.000793657
0.606565
0.000793081
0.000796651
0.846816
0.36623
0.000792913
0.000793964
0.000793658
0.000792942
0.000792873
0.000793659
0.000793748
0.000793659
0.000793659
0.779148
0.000793659
0.00079409
0.000793659
1.22762
0.000793634
0.000791458
0.000793412
0.58033
0.000793659
0.000792272
0.000784527
0.000791862
0.000792603
0.000793664
0.000807584
0.000793772
0.000792527
0.000793361
0.000792535
0.000210655
0.000792551
0.00170693
0.00103114
0.00151989
0.000793659
0.0017066
0.00216391
0.565676
0.00079226
0.00079403
0.00164547
0.137289
0.000793659
0.517158
0.00151297
0.000793659
0.000793659
0.000780758
0.000792922
0.000793465
0.792113
0.000793659
0.000793545
0.000792723
0.00158865
0.654917
0.000792881
0.00170365
0.000793659
0.00129928
1.49533
4.53891
0.00147575
0.000792361
0.890368
0.000793392
0.000793659
0.000792443
0.000793644
0.00079707
0.000791324
0.168243
0.000793659
0.000797388
0.802819
0.00174449
0.00079313
0.00079521
0.000793659
0.882312
0.00227548
0.72523
0.000794514
0.584466
0.526147
0.00145868
0.000793667
0.00126338
0.000792942
0.00151843
0.000792235
0.000793103
0.001453
3.84156
0.646967
0.000792925
15.4697
0.000792947
0.546879
0.000794722
0.000793658
0.00079322
0.000793659
0.000792127
0.000795257
0.000792572
0.000793517
0.000793659
0.000793043
0.000793012
0.000793393
0.659079
0.000802159
0.121233
0.000793262
0.000793739
0.00151888
4.99931
0.000793295
0.000793197
0.00145275
0.00079361
0.000795482
0.000793549
0.00181945
0.887794
0.000793659
0.000793659
0.000796134
0.000793059
0.000793659
0.000793507
0.000793194
0.000793659
16.3519
0.000792225
42.0052
0.000794064
0.000792945
0.00079093
0.000791946
0.00146679
0.000792645
0.000793659
0.000793659
0.000793205
0.209059
0.000793659
0.000795
0.714572
0.000792586
0.665951
0.000793568
22.0374
0.000791497
0.0007923
0.907622
7.40153
0.000789198
0.000794962
8.89702
0.00177604
0.000791711
0.000793075
0.000793659
0.000792846
0.000792893
0.653368
0.759816
0.675771
0.000793659
0.728528
0.000792763
0.000792872
0.000793732
0.00140491
0.00103491
0.000793403
0.000794302
0.000793659
0.000794258
0.000794443
0.000793659
0.000792781
0.000792778
0.000793656
0.0139191
0.00175847
0.000793659
0.133763
0.245447
0.000791847
0.000449116
0.0715471
0.000793659
0.000793559
0.000792576
0.507848
0.000793659
0.000793659
0.635506
0.00160729
0.000793471
0.000793659
0.000793659
0.000793122
0.000920496
0.160685
0.000793654
0.000792264
0.564759
0.000793475
0.000793223
0.616947
0.000792846
0.000793659
0.000793668
0.00079225
0.649124
0.000793914
0.000791054
0.000793659
0.000792827
0.0016843
0.000793659
0.564072
0.00139864
12.6943
0.000793659
0.000793659
0.000791991
0.000793022
0.000794339
0.000793659
0.0778584
1.388
0.0012403
0.011037
0.000793659
0.0013095
0.000793659
0.000793659
0.000793009
0.000793659
0.000793116
0.000793659
0.000793659
0.000792206
0.000793296
0.000793659
0.265329
0.000793383
0.934915
0.00079267
0.776599
0.754659
0.000793659
0.00133618
0.758668
2.78759
6.00687
0.0116886
0.00079293
0.000793669
0.000793659
0.000793669
0.1351
0.000793667
0.190239
0.103307
0.049895
0.116629
0.00104381
8.87345
0.000793659
3.96887
6.43438
0.000793593
3.01231
0.000571785
0.000795033
0.000793659
0.000793293
33.3511
0.000792253
0.697639
0.00142401
26.9713
0.490373
0.790547
0.00198044
0.000793659
0.000792636
0.000794135
0.00079165
0.000803153
0.000793658
0.000792734
0.000794126
0.12429
0.00164129
0.00079414
1.94922
0.000792718
0.00079218
0.000793241
0.000793245
2.14539
0.216047
0.000791913
0.000793727
0.000792341
0.688263
0.0876509
0.000792839
2.1427
0.722226
0.0801027
0.000793661
0.000793224
1.21959
0.781887
0.000791256
0.000792429
0.000793567
0.00079267
8.19274
0.000792547
0.510441
0.00079157
0.000793659
0.000792362
0.000793475
0.000879646
10.1545
0.000793025
0.000793817
51.5387
0.117495
0.629336
0.000791688
4.72477
1.34022
0.000792298
0.000793664
0.000793281
0.911063
12.353
0.000792608
0.00144796
2.4731
0.000792442
0.00103937
2.73317
0.000792377
0.000793546
0.000793946
0.000793259
16.5245
0.000793665
0.000793913
0.0883094
44.4521
0.00112044
0.0010683
5.42996
0.000793395
7.35638
0.489463
0.000793796
0.865251
0.40377
5.11359
1.65755
3.92792
4.19752
0.000792611
3.04459
0.63441
0.00055785
0.000794239
0.000791978
0.000792246
0.000793773
0.000792086
0.000793059
0.000793899
1.83441
0.000793659
0.000793657
0.0137998
0.000793659
0.000792886
3.32788
0.101127
0.001679
0.000937638
0.000793499
0.281193
18.3008
0.635646
0.000793491
0.000793122
0.000792828
0.298293
6.09772
0.00182481
0.000780415
1.03526
0.000792207
2.06205
0.000817543
0.000793474
0.246242
0.00161333
0.000795034
0.0295754
0.000794097
0.000792723
0.170895
4.81254
5.33732
0.000793613
0.00079247
0.000793659
0.000793507
0.000796596
0.000898477
9.50353
0.000793659
0.000793659
6.75524
0.000792365
0.000792907
0.0709297
0.000793659
5.23719
5.65213
0.000793659
0.000793024
5.97248
2.19251
5.49883
2.93131
0.000793096
12.6864
0.78757
0.00203842
8.58541
0.000151862
0.826865
0.000792789
0.000791962
0.000754178
0.419455
0.00217546
0.000793951
0.18611
0.623947
12.6358
0.0886206
0.000793659
0.058661
0.566721
2.16944
0.000793659
0.000792126
7.99329
0.000793723
0.000796349
0.244935
0.000801021
14.548
4.69065
0.00302007
0.000987532
0.000792745
0.000792977
5.94945
0.347082
0.000793335
0.000794693
0.000793659
0.269028
0.000797908
0.319761
21.1969
0.000794565
0.300016
2.86914
0.0384388
5.24184
6.14997
2.5251
0.000799924
0.754827
5.3635
1.3172
0.00123059
0.000793659
5.92819
0.000795992
0.00078058
0.00230805
0.0374218
0.651283
3.31942
0.00174515
0.790004
5.3694
0.000792943
6.81472
0.00201668
0.79552
2.02171
0.00079523
0.625262
0.333141
4.28966
0.00231874
0.000793661
0.795674
0.000793659
0.00147158
2.04138
0.00135339
0.000795772
0.634504
0.285381
0.000790885
11.8308
0.000793659
0.000792647
0.000793235
0.000794102
0.733045
0.00131262
0.000793659
0.16756
0.509078
0.000795641
0.000794311
33.3753
0.000792472
0.000793659
0.000791825
5.10701
4.58976
0.000792065
10.1001
0.000793659
3.30004
0.299625
0.000802571
0.65346
1.33772
0.040276
0.00390558
0.000793236
0.554588
11.1865
0.24614
4.68147
19.3337
0.00147568
4.2882
0.000793356
9.9335
0.000792643
0.627828
0.000793077
4.05202
0.000792384
0.00144832
0.00113119
1.11296
0.405975
0.00142812
0.000792707
7.3701
0.593859
0.000792404
0.000793659
2.73838
0.100147
0.000791743
0.847829
0.000793701
5.90653
2.53816
0.852773
0.000791995
0.000792986
3.63354
1.75996
0.00142194
0.000794366
0.00175688
0.000792339
0.000794077
0.328383
0.000793659
0.670719
0.603895
0.000793344
0.0790635
0.000793646
2.2428
0.80319
0.000793659
0.00235103
1.07718
0.000793662
0.000793659
0.000793301
0.242705
0.000793406
0.000794501
0.000793256
0.00174161
0.000794149
0.000798345
0.000793376
0.000793658
0.000793083
0.000793486
0.000793262
0.000792392
0.000794283
0.000794036
0.000793036
3.89152
0.000795496
0.000793461
3.29504
0.000108451
0.000792359
0.000792724
0.000793985
0.000793659
0.00163985
3.34559
0.000790915
0.000793501
0.000796363
0.000814494
0.261817
0.233978
0.00203059
0.542601
6.99526
0.000793606
0.000793491
12.8149
7.86403
0.00141135
0.847059
0.000792579
0.00079017
1.0451
0.00143489
5.09707
0.00177732
0.00188676
0.00122931
0.000791124
5.41828
0.00079306
0.000793671
0.00180558
6.13012
4.19412
0.498697
5.45447
0.00135343
0.00130398
0.00565077
0.000790482
2.38475
3.93015
0.00132981
1.09884
0.000792507
3.40688
0.000792507
0.000904889
0.000793818
1.71702
0.000793659
6.78179
0.000795159
0.000793108
0.0018182
4.21514
0.213819
0.00073633
0.000793067
0.000792927
6.67597
0.000792919
0.000793659
0.40585
0.000793659
3.53691
0.000791355
0.000794358
0.000804145
0.000794442
0.000794193
0.000793659
3.05223
0.000792721
0.142216
0.269991
0.000792681
0.000792885
0.000794805
0.000792964
0.000794748
0.000792557
5.41922
0.000792191
0.000792062
0.000793659
0.00186292
0.517003
0.00079322
0.000795102
0.000793646
3.26756
0.000792214
0.000794031
0.000793932
0.000793783
0.000792703
0.774778
0.000793853
0.000793651
0.000793416
2.52398
0.000805342
0.000794158
0.00079149
0.766175
0.000795239
0.000797922
0.277613
0.0007934
0.00079601
0.000794934
3.8802
0.000792899
0.000793943
0.000711109
2.42311
6.61626
0.000795035
9.33876
8.48869
6.72876
0.000792997
8.20437
0.13497
0.00131146
0.000794158
10.6623
7.73025
0.000791598
0.000793671
0.000794168
0.000791592
10.8881
8.5081
0.000792495
0.000793659
0.000757238
0.000794818
0.000794434
0.921308
0.000793401
3.02957
11.1316
0.000793663
0.000810377
0.23438
0.000823495
0.000532005
0.000792975
0.000791609
0.621121
0.000792752
4.46085
0.000791423
0.000798913
0.000793965
0.817887
0.00183507
0.000792621
0.000792953
0.000793659
0.000792992
0.00079917
0.000793118
6.60322
0.000792705
5.01085e-08
0.00782238
0.00250762
0.000792301
0.161597
0.860459
0.000793186
0.244673
0.0921963
0.00241323
0.000793583
0.00079296
0.732174
4.82373
0.196796
0.0577177
0.000793923
0.000793659
0.00247598
0.0007919
2.68135
0.000792781
0.000792724
0.00163915
0.0193935
0.000793048
0.000793659
1.54653
0.000793659
0.000792948
0.000793659
0.000793659
1.75908
0.767192
3.09462
0.000793659
0.000792556
0.000792334
7.37269
0.000794321
0.798025
2.52729
0.00179087
0.000792749
0.000793128
0.000793262
0.000793659
3.82475
3.05158
0.000793659
0.000792507
0.000792966
0.000792891
0.648856
0.000793659
0.726117
0.000793659
0.763097
0.00157914
3.09752
0.000793661
0.000793626
0.000793659
0.000798174
0.00079496
0.00079595
0.000793659
0.622584
0.00080105
1.32223
0.562676
1.82615
0.000792477
0.000794958
0.000793668
0.000793659
0.000803071
5.87937
0.000793659
0.000791973
0.000792821
0.808921
0.475477
3.82864
15.0192
7.47574
0.685857
0.00258449
34.6949
0.000784791
0.609797
0.00078834
0.000791305
0.00206225
0.192544
0.854555
0.00471313
0.000792627
0.686819
1.02228
0.000793658
0.000793659
0.000794824
0.000793541
0.000792499
0.000792852
0.00144028
0.417389
0.000793664
3.77834
1.62792
0.000793652
0.000793659
0.000793659
0.000792113
0.000793657
0.000793622
0.000794243
0.00171237
3.17413
0.000795172
1.40907
0.865672
0.000797387
3.51695
0.73811
0.000792995
0.00142896
0.349914
0.000849602
0.0014492
0.00151089
10.1397
0.904547
0.000795353
15.1485
0.000793659
0.000792607
0.00106118
0.00079463
0.000793814
0.000793284
0.000793661
2.53014
0.000793288
0.000792257
0.000792943
0.000793659
0.000794591
0.000792414
0.000794966
0.000793111
0.831116
0.000793657
1.03282
0.000792312
0.000829571
0.000794481
0.000793573
35.6644
0.000792901
0.000791872
0.54125
4.35647e-05
0.000791627
0.000790821
0.000246941
0.0106279
0.341226
0.0008054
0.000793659
18.047
0.000793398
0.000794375
0.000793576
0.150198
0.00079324
0.000792869
0.000792819
1.64989
0.0012961
0.000792925
0.00144418
0.000793428
0.843968
0.00188866
0.000793987
0.0244868
0.000793665
0.000792774
0.000792992
0.000793172
0.000793656
0.000792628
0.00150471
0.000793524
0.00079374
0.000813274
0.842531
6.49827
0.000792859
0.000798152
0.00179095
0.000799566
0.124063
0.601195
0.0177684
0.000825488
0.000794868
0.00148368
0.000792335
0.000810139
0.00079286
1.57362
0.523349
0.0016637
0.668783
0.972796
0.000792322
0.000793668
1.06828
0.000793656
0.000791672
0.0447725
0.0015547
0.000792759
0.000793424
0.000570137
0.000792351
0.000792538
0.000793426
0.000793659
0.000791698
0.848444
0.000793378
0.000792724
0.000792295
0.000793676
0.000793659
0.199265
0.275583
0.00173893
0.000792672
0.00137097
0.00335851
0.000791845
0.000793175
0.000792785
4.71244
0.664034
13.7023
0.000793649
4.71677
0.000793635
0.000792634
0.281939
0.556453
0.000793934
0.000793889
0.000793659
0.000793327
0.000794216
0.000791621
0.000792677
0.000793184
0.898244
0.0393851
0.941961
0.000793946
0.00079387
7.9349
0.000792413
5.2411
0.000793305
0.0013567
0.000792166
0.000793659
0.000792997
2.09211
0.140094
0.000779451
0.000783042
0.000793659
0.000793659
0.000205145
0.000792485
1.10711
0.00152637
5.03754
0.586801
0.000793659
5.90878
0.000793659
0.000792713
0.000793659
0.000793659
0.000793043
0.000793124
0.792452
0.000792906
0.00263542
0.000793659
0.000801931
0.000793696
21.6482
0.000793058
0.000793185
1.86701
0.77873
0.000793349
0.000794227
0.000793628
0.000792873
0.0509211
0.000791969
0.775442
0.000792779
0.000793163
0.00692665
5.46681
0.000793899
0.00078176
0.000792987
0.000833688
0.000793659
0.000793659
11.9345
0.000792914
0.000793659
0.00188086
0.000793659
0.0007923
0.00079149
0.000793665
0.000795764
0.00312806
0.000792849
0.000799482
9.52667
4.81802
2.81952
0.000793663
0.000792972
41.7067
0.000793241
0.000805947
2.77775
0.000792097
0.3746
0.355294
2.10152
0.728253
0.000793074
0.000794701
0.000793211
0.000793659
0.000794532
0.646778
0.00079267
0.625187
0.000792097
0.498097
0.0138793
0.000793621
2.27718
0.000792529
0.000794529
0.000966766
36.0102
0.912019
0.000793659
0.709323
0.000794276
0.000793659
0.000793162
0.00079479
0.000795628
0.000793659
5.10959
0.666114
0.000797558
0.000792436
0.000798766
0.000793659
12.0367
0.000793659
4.73711
0.000792886
0.000793659
0.000786164
0.00165647
0.000792558
9.47821
6.55276
0.000794596
0.000794223
0.000793518
2.3675
0.000795086
0.000793574
0.000793032
1.18145
0.000794398
0.000793659
0.000793343
0.118547
4.61999
0.636939
5.2959
2.32865
11.855
0.000793431
0.000792538
0.000794868
7.20156
0.000793188
0.000792878
4.21606
0.00115386
0.227509
0.000793461
0.000791602
0.706954
0.649896
5.91612
0.000793659
0.000793144
2.37936
41.1899
0.0095023
5.78337
0.115108
0.0007936
0.000793018
7.65927
0.000793057
0.00079345
0.00160163
5.72271
0.00111247
2.67569
0.723619
5.31348
0.00079352
0.348171
4.66499
0.000793165
0.000793038
7.14053
0.00079292
0.000793176
0.000793333
0.000793154
0.000799802
0.00366797
0.000793064
3.93853
0.000792856
0.000793659
0.000793125
0.000790276
0.00121806
0.0518163
0.000793457
0.00079152
0.000793128
2.22959
5.43343
0.000791578
0.000792776
0.000748041
0.00079212
0.000833194
0.000793602
0.000793567
5.10473
0.000797162
2.79973
0.000793659
4.57039
0.000793289
2.0935
2.22674
5.19015
0.000792732
0.000800961
3.6355
0.000791992
0.000793389
0.000793391
0.00079342
0.000200948
0.0172589
3.52549
4.63931
3.99441
8.80337
0.00144047
5.16553
0.00156988
0.00170174
0.000792141
0.000791738
0.00174731
0.000792031
0.00132319
0.000792802
0.000794606
0.000793551
0.00167803
0.000793263
0.00079976
0.00153855
0.000792455
0.000793659
0.000793956
0.000793111
0.000792115
0.000793659
0.504368
0.00079363
0.00079354
4.33179
0.000792582
6.90939
7.0587
0.680559
7.72812
0.668851
7.76606
0.739857
0.000793659
0.000793659
0.000792575
0.590264
0.000793659
1.67877
0.000792945
0.000792031
0.000793266
0.000793655
0.000790815
0.000793059
0.000792194
0.0007749
0.000793653
0.779749
0.000790946
0.00079343
12.7643
0.000797315
0.000792289
1.92117
0.565683
0.000792648
0.000792634
0.000792799
0.974593
1.64525
3.65012
11.7508
4.45056
0.000793422
0.000792979
0.000793073
0.000791787
0.00079244
0.000792897
0.00145961
0.000792527
0.000793074
0.000792808
0.000793998
0.000793982
0.000793494
0.000794833
0.000793829
2.45271
2.35539
5.4087
0.0336269
0.225207
0.000791366
0.000793618
5.3064
0.000757414
0.000792747
5.72946
0.0014186
0.00079374
0.000794107
0.00244982
1.00884
0.0799191
0.000791849
0.000793659
0.00163417
3.79335
0.000793659
0.000792056
0.000793659
0.0292841
13.0599
0.0007962
0.0016845
0.000792929
0.000793665
0.000791913
0.000793178
0.000793207
0.000793169
0.000793151
0.000791921
0.000793707
0.000793531
0.00079309
0.000793089
0.00079297
0.0174447
0.00079169
0.0298171
1.6387
5.56488
4.37863
0.677866
0.736241
0.961844
1.48574
0.000793659
0.000792705
0.000793224
0.0806692
0.340142
0.580359
0.0331855
3.86984
4.13857
4.84256
5.84917
0.00138302
0.000365415
0.000795851
3.75287
0.0324363
6.76687
0.000791703
0.00079294
0.000793886
0.000792843
0.616727
0.13164
0.0108036
8.19595
0.000794334
0.000792431
0.000792795
0.000792322
3.17758
0.00117365
0.000791478
0.000792677
0.980007
0.000344098
0.000792665
0.000793582
0.000796163
0.000793864
0.000793659
0.000791954
0.683108
0.000791948
0.000793658
0.000789042
8.14117
0.000796299
0.000690002
0.000801684
0.000792363
2.06208
0.000795404
0.000799759
0.000793829
0.00952725
0.355351
0.789829
0.000795593
3.19061
0.000793419
0.000793939
6.41577
1.16479
1.54599
1.72347
0.884109
0.000793659
11.1225
0.000791772
0.000793659
0.000793659
0.000793221
0.000793659
0.15114
0.000793132
0.305769
4.27755
0.000794703
0.000793447
0.00221711
0.000795315
0.793792
0.000793659
0.0049781
0.000793659
0.00079364
5.96676
0.000791869
0.000792921
7.00918
0.000793232
0.000791984
0.000793083
12.6391
2.98312
0.000792466
6.14529
0.000792443
0.000793163
0.000792606
0.000793669
0.000792467
0.000793833
0.000792934
0.000793659
0.000792461
0.000794042
0.0170404
0.000792785
0.000225294
0.000791545
0.00344621
0.00148624
0.15387
7.26896
0.000793659
0.000793659
0.000792523
7.08518
19.9228
0.000793659
0.000793834
15.6779
8.9258
0.00997556
2.70553
3.13352
0.000794206
0.578713
0.605832
0.000794481
0.000792441
0.000795282
0.000797098
0.802974
0.000777543
12.5025
0.000793659
0.000793317
0.575331
55.2313
0.000794309
11.0204
12.7588
0.000793185
0.00079348
0.00175669
0.000792396
6.38881
0.00169514
0.00177002
0.00183938
0.00079354
0.000793356
0.816412
0.00491504
0.000796706
0.000793422
0.000792895
0.000792722
0.000792695
0.000792783
0.637944
0.537833
0.323774
0.000793659
0.000793388
0.000793659
0.000794866
0.000795042
0.000793686
0.000797276
0.000796849
0.267995
0.000793346
0.506114
0.638253
0.000793305
0.00079394
0.000792953
2.89078
0.000793653
0.000796974
1.37294
0.780348
0.000794348
0.000793659
0.000793522
0.000793068
0.00079538
3.16367
0.000798712
0.000794354
0.191071
5.69095
0.000793004
4.05285
0.00078842
7.97875e-05
0.00084782
0.000793452
1.24074
0.000791823
0.000790992
0.000792527
0.00079581
0.000797303
0.000795639
0.00202005
0.000796508
0.00121112
0.000794932
0.00413817
0.000798213
0.000791826
0.00079436
0.000795292
0.00202655
0.566968
4.28508
0.000796185
0.000852643
0.00154772
0.000792504
0.00186175
0.847043
8.27846
0.00179614
0.26297
0.000794612
0.00227198
1.54513
0.000792787
1.3031
1.25471
2.54302
0.00172972
0.0015466
0.427286
0.000792547
0.000794942
6.03301e-06
15.3111
0.000798975
0.000793806
0.0596693
0.000797967
0.000794648
0.001762
0.583481
10.7698
0.000793316
0.427288
0.000794289
0.426912
0.000795247
0.000792046
1.01133
0.000792596
0.00188138
9.36994
0.000576909
0.00187152
5.46233
0.000796548
0.092315
0.000793479
0.771611
1.02179
0.000664717
0.000796431
0.000839207
1.69346
5.27921
3.61612
0.000796294
0.000793976
5.36934
0.00079075
0.000791072
5.44502
4.42791
0.001666
0.000793733
0.00079304
0.000792811
0.760096
0.000794683
0.000793112
0.000793657
0.128224
0.000791532
0.000793659
0.000477223
0.00220974
0.000793584
0.000794884
6.85679
5.31161
0.000792865
0.000791506
0.860065
0.0735093
0.000792563
0.355727
0.00190362
0.00201727
0.221703
0.000792697
0.041319
0.00147791
0.000792236
0.000794479
2.94822
0.00164198
1.79929
0.000792921
17.2005
0.267721
0.00838112
0.485594
0.0130287
3.17402
3.6086
7.08741
0.485068
4.93879
0.680883
0.000792681
0.000799314
0.708924
0.000792536
0.000793391
0.648845
0.199732
0.000793592
0.000793832
0.000792952
0.000792985
0.00158806
0.643671
0.000792642
0.237518
0.000792227
0.000793336
0.52766
0.805967
3.39933
0.000795886
0.982834
18.6117
3.66689
10.7278
0.000793672
0.000791616
0.000792823
0.000793509
0.00145834
0.00180739
0.000791689
0.000792658
5.36411
1.08142
0.00204225
14.5702
0.643796
14.0248
0.00153494
1.9937
0.000798141
4.58687
0.0015881
0.650603
0.000795545
0.000793659
4.91536
0.000793659
0.000793662
0.000793335
0.000793659
0.000793659
0.00133236
0.638593
0.000179942
0.000793659
14.1098
9.49276
0.00132174
0.000793656
0.000793054
0.000792572
0.000792308
0.109226
0.000792502
0.885838
0.885927
0.000793664
0.000793659
8.5704
20.0411
1.24326
0.797462
0.00079614
0.00184144
0.743181
0.000793659
0.000793659
0.000792457
16.5286
0.000793654
0.000793659
0.000793659
0.000793641
0.00142603
0.000794314
0.00079662
13.6598
0.00105191
0.00236105
0.000790684
0.678916
0.760106
5.34989
0.000124377
0.000792333
1.03533
0.000792487
0.000793667
0.000793623
0.882178
0.000793549
0.00147818
0.788682
0.000793659
0.000793658
0.611387
0.00079367
0.000793648
1.9604
0.799751
0.000797626
0.808836
0.000792155
0.000793659
0.000793659
0.000793659
0.000793621
1.20785
0.000793184
1.10991
0.00141084
0.000793659
0.000793659
0.466536
0.00079324
0.583217
0.00141751
0.000793659
0.000793658
0.000793667
0.000793502
0.00130275
0.67196
0.000793658
0.00145414
0.689104
0.000793654
0.000793659
0.00136172
0.000793454
0.000793664
0.00137717
0.00133992
0.000793659
0.000793666
3.99206
0.617055
0.00143487
0.629622
0.766117
0.000804039
0.8136
0.000793616
0.000793659
0.000793178
0.000793543
0.000793659
0.000799323
1.5621
0.000793668
0.00137173
4.46981
0.00141501
0.000794473
0.0007931
1.18753
0.080401
0.00146001
1.14998
0.000793659
0.132095
0.000792507
0.000792298
0.000793659
0.000793502
0.570617
0.000793668
0.766055
0.00079327
0.000793659
0.000793659
0.000793532
0.00143728
0.00129944
0.632089
1.00795
0.000793659
0.000793659
1.63932
2.79072
0.000793659
0.000792151
1.85056
1.08598
0.000437104
0.794985
0.00063462
0.000793672
0.000793659
0.000793659
0.000793656
0.00132416
0.842829
0.907664
0.000793661
0.000793586
0.0013896
0.00079795
0.628725
0.000792384
0.000793651
0.000793022
0.0014569
0.00135008
0.00144475
0.000793659
0.00128877
0.741391
0.000793062
0.000793291
0.000775579
0.734468
0.000793846
0.000793659
0.000792731
0.000794629
0.000793659
0.728631
0.00158832
0.000793666
0.000793659
0.934056
0.000795203
0.000793659
0.519023
0.524146
0.00150123
0.000793659
0.000793659
0.00148508
0.000793659
0.000793659
0.000792697
0.000793567
0.000793659
0.000793659
0.000793659
0.000793659
4.12614
0.000793659
0.000793659
0.000349374
6.22137
0.526831
12.8088
4.25456
0.000794677
0.521002
4.90636
2.92992
0.00137286
5.76731
0.000793227
0.672048
3.87809
0.10108
5.16949
0.00154921
5.0373
0.0852126
0.079103
4.90542
0.000794002
0.000793659