/*--------------------------------*- C++ -*----------------------------------*\
| =========                 |                                                 |
| \\      /  F ield         | OpenFOAM: The Open Source CFD Toolbox           |
|  \\    /   O peration     | Version:  2312                                  |
|   \\  /    A nd           | Website:  www.openfoam.com                      |
|    \\/     M anipulation  |                                                 |
\*---------------------------------------------------------------------------*/
FoamFile
{
    version     2.0;
    format      ascii;
    arch        "LSB;label=32;scalar=64";
    class       surfaceScalarField;
    location    "0.35";
    object      phi;
}
// * * * * * * * * * * * * * * * * * * * * * * * * * * * * * * * * * * * * * //

dimensions      [1 0 -1 0 0 0 0];

oriented        oriented;

internalField   nonuniform List<scalar> 
62453
(
11.1934
-1.8546
-7.83465
0.742567
7.92455
-2.17766
-4.45052
2.79886
1.79239e-05
-1.41292e-06
-6.71293e-06
4.62662e-06
-1.67313e-05
4.86555e-06
-2.32243e-06
6.712e-05
-4.59425e-11
-1.29227e-11
2.21849e-11
1.79344e-11
-0.00799631
0.00346293
0.00164888
0.0100389
3.57751
-52.9647
8.855
33.0482
17.5157
-26.5848
-39.5214
1.95862e-10
-1.94329e-10
1.52875e-11
1.0784e-10
-0.0929962
-0.0653174
0.460221
-0.111287
-7.37211
-48.3408
35.8911
28.6064
-15.1816
-1.62933
14.5156
17.2236
-42.5431
10.8198
-2.10938e-14
-5.08206e-11
2.18127e-11
7.49408e-11
1.57803e-11
1.9978e-11
-6.33507e-12
6.57698
3.95389
-7.96
5.64889
-7.6945
6.92786
3.31702
1.84154
0.0236754
-0.00330323
0.0427082
-0.0213832
6.89266
-9.32942
-6.17058
-3.85807
-2.311e-11
2.19135e-11
-6.50517e-11
6.68289e-11
-1.06977e-11
-2.91247e-11
-1.15902e-10
2.34756e-11
11.832
-3.76753
12.1356
-13.752
-4.02669e-10
7.79434e-10
-6.038e-10
1.8956e-09
-1.43034e-11
-3.20438e-11
-20.7952
27.7668
-6.20547
4.83682
0.000132191
-2.17697e-05
-3.59085e-05
8.51991e-06
-0.00230873
-1.07981e-05
-0.000789649
2.98914e-11
41.5032
12.232
-51.5308
11.9656
10.5556
-28.723
-10.106
6.23534
4.80347
-11.2785
5.21099e-11
1.43501e-11
2.78934e-11
8.71141
42.9014
50.4891
-100.192
-32.1593
1.30579
2.92606
27.3046
15.0489
-45.7928
42.9038
-14.1897
22.9258
4.54876
-6.37454
-21.4455
3.44733
-2.81447
-1.84108
-1.45023
42.2674
14.833
-51.4045
-5.74997
-7.17817
13.09
-7.01952
8.20093
1.15483e-05
-6.68692e-05
0.00124029
-0.000358301
-7.00431e-07
-2.78255e-07
1.79866e-06
3.04662e-07
-1.62965e-08
2.78837e-07
-2.89557e-08
-3.39665e-08
9.81578e-11
-4.64148e-11
2.35349e-11
-1.04058e-10
10.7774
3.49912
-15.5372
12.3289
-27.5344
2.11491
1.22185
21.3477
11.9385
-12.9215
-19.1744
-16.1038
-8.22653
6.26079
1.73146
9.42713e-11
-3.71206e-11
3.74114e-12
1.59413e-10
24.7569
40.1516
-22.5267
-49.1193
28.7322
-31.2476
52.5695
9.55839e-09
-4.4109e-09
-1.57411e-10
3.26655e-09
-4.82831
5.71005
2.33883
21.9676
-11.1413
-9.32075
-9.40276
2.67798e-08
6.33584e-08
-2.82501e-08
1.73642e-08
-1.56198
0.438687
0.236179
1.05955
3.11289e-05
3.27509e-05
6.6841e-06
-2.27027e-05
-41.5979
12.4907
33.8457
-7.50274
-1.09475e-10
-1.4673e-10
8.76639e-12
-1.66549e-10
4.09372e-11
-6.5858e-11
-12.051
28.2697
-12.1973
-9.5559e-12
1.01896e-10
3.12274e-10
-2.02431e-11
2.37624e-11
-1.60246e-10
-4.90178
-30.9456
-3.69509
52.8716
-81.2269
-6.66659
32.409
54.1997
2.83738e-07
-9.38214e-09
-4.45564e-08
-17.0551
27.6995
-1.72767
-1.62911e-11
-4.29498e-11
8.21487e-11
-0.263049
3.61117
1.95841
-3.11622
-4.28246e-11
2.18054e-11
3.78986e-11
-8.42002e-11
-5.08203
13.087
4.58584
-12.8156
9.538e-12
3.42977e-11
-1.46854e-11
-6.32998e-12
-6.12228e-11
-7.21786e-11
6.51555e-11
-1.18792e-06
-8.08161e-07
-4.58513e-07
9.09324e-06
2.68267
-6.20448
-16.5307
-1.34596
-80.6518
32.7683
43.4545
5.00419e-06
-1.13706e-06
-9.15988e-07
1.24753e-06
1.16831
-0.536735
-0.104192
-0.961326
-0.614413
0.250945
1.41093
1.04426e-06
1.29722e-06
-2.63621e-07
-9.00459e-07
-1.57606e-06
5.85932e-07
1.55798e-05
-4.58231e-06
9.26131e-06
-2.47941e-07
-6.54642e-12
4.47256e-11
1.54234e-11
2.17283e-09
9.08928e-09
-3.35668e-09
9.44487e-07
-4.24553e-07
-4.86142e-08
-7.50929e-07
-1.73474
2.06758
-2.65802
2.53965
-35.657
-7.16867
44.9228
0.0052147
-0.0279007
-0.0437581
0.143856
-0.417301
-1.3518
0.241467
2.66882
-2.59762e-06
0.000160779
-5.31931e-05
1.72761e-06
3.61002
-1.02003
2.79614
-5.23391
3.86195e-11
5.57461e-11
4.9473e-05
-3.93267e-05
0.000130115
6.48566
1.01485
-0.753126
-6.68442
1.30796
-0.954046
-2.58188e-11
5.35914e-11
5.68172e-11
1.1055e-12
1.77251e-11
-9.67202e-12
-1.07378e-11
-4.57311e-11
-5.84055e-11
6.27765e-11
8.37973e-11
-3.15468e-11
1.78183e-11
-1.00259e-11
-19.9843
8.16633
-14.4171
27.9521
-3.11352
-0.408734
1.03676
4.53908
-0.0375748
7.47888
-8.26664
3.14591
-0.723016
1.10008
-5.28498
-3.41528
69.0179
-34.5823
-18.9013
2.89562
10.5613
-11.9585
1.64724
-14.7088
7.12887
-2.74149
-2.62559
0.229637
1.62727
2.69453
0.0165363
-0.013986
-0.05157
0.207487
0.397516
-0.375817
-0.537653
1.11284
75.723
-32.3047
64.5496
-100.078
0.245372
-0.0153127
-0.0481713
-3.05012
-0.110777
4.3197
0.489514
-6.19094e-11
6.1563e-11
3.56383e-11
-1.86365e-11
-3.58676e-12
8.77884e-12
4.77171e-11
-3.67122
-3.17177
5.13065
2.18479
-0.457308
1.12031
-1.26109
0.755411
9.31125
-4.04118
-1.81398
0.0475948
0.968423
0.28229
-0.735802
-0.00692388
-0.168671
0.289682
0.203005
-81.685
13.6858
-2.67896
74.6912
-3.01604e-05
3.01178e-05
-4.33799e-05
0.00016299
-0.452835
-1.41246
2.406
-0.274012
0.000965428
-0.000177805
-0.000321223
2.68136
0.574401
0.132672
-12.1265
20.5035
7.58068
-13.2952
6.37021
0.472569
0.211906
-6.858
1.43773e-06
2.69681e-05
-2.0451e-05
2.18248e-05
-8.97707e-06
2.37698e-06
-2.70797e-06
1.30036
-1.12029
5.71192
-6.40756
-6.49181
-1.86245
-15.4315
5.80165
3.56026
-6.02348
-19.7906
16.8523
-19.827
-2.92518
-4.81816
18.6087
4.94967
-1.83266
-13.9553
-3.937
0.631168
-1.16604
4.44373
0.016783
-0.399105
0.402846
4.56297
4.04741
-18.7422
18.7096
-5.80762
7.12179
1.02026
-13.096
-23.6953
6.80995
15.7191
5.42391
20.2425
-9.63209
-0.3583
-1.6404e-10
1.15214e-11
-2.5996e-11
-2.51393
2.4414
-2.42229
2.53712
-19.6889
0.817248
-0.0839254
19.2922
4.29755
-5.17201
-9.83099
5.90955
-117.11
122.505
-37.1745
46.5612
3.41486
-7.16214
-4.55134
5.22645
-4.64848e-11
-4.83999e-11
-9.3235e-11
9.39372e-11
3.19981
15.2679
-7.85866
-3.74162
-0.878764
2.52467
-0.952148
-0.402407
-0.0186371
-1.94116
1.56343
3.90528
5.51624
-2.51675
-4.5539
0.70839
6.88156
-7.16726
-0.603983
0.197914
0.0575675
0.163079
2.39344
5.92715e-08
-7.46595e-08
2.35553e-07
-3.23878e-08
-3.36495e-06
2.11138e-05
1.00886e-06
-5.51384e-06
-4.48359
0.639702
-9.91969
16.299
-5.18711
-2.244
5.81501
0.282497
0.0659682
-0.0575815
0.104074
-0.025155
-2.07797
1.76533
5.445
-1.32529e-07
-1.71321e-06
3.20377e-06
3.0354e-06
-9.98371e-11
-3.83704e-11
1.72827e-11
2.98055e-11
-6.98491e-07
5.16758e-07
3.64174e-06
-6.72789e-07
2.98201
4.54481
5.12957
2.11659
38.1748
-14.3879
-41.1865
13.5926
4.36877e-06
1.34701e-06
-1.7772e-07
-1.76075e-06
-46.6105
7.33208
27.0939
-1.36381
-16.8075
-1.32913
-23.6493
2.96129
94.4834
-27.1644
-56.0336
-0.644084
-2.89581
0.26742
3.18747
6.24886
4.38675
-9.21542
6.28512
0.0988257
0.85049
0.298124
-1.26549
1.34806e-10
-1.14501e-10
3.82534e-11
-4.99181e-11
-2.53735e-07
-3.71436e-07
1.0843e-06
3.93151e-07
0.847035
0.0978912
-0.0892007
-0.834819
4.21451
-44.8811
11.4143
31.224
2.09179
-0.750605
0.948621
-2.00252
-6.42997e-09
-4.20532e-09
3.9608e-08
-4.52106e-10
0.0216463
-0.0794053
0.550546
-0.197511
-0.890574
-7.31583
7.7339
2.56432
15.287
7.57028
-13.955
-5.29541
17.5222
-16.597
10.4987
-4.89216
3.3989e-05
-0.000117414
-0.000153005
0.000729591
-2.80265e-11
3.54595e-12
4.92993e-11
19.5674
-16.7917
-1.51902
2.93592
-14.1374
14.396
-6.10467
-2.64716
-0.576773
2.35555
3.15022
10.8501
-12.054
1.8843
6.0407
-34.6064
32.1832
22.5282
-11.4242
-13.3007
-12.9999
4.67396
-2.60771
-0.985346
1.54474
3.0943e-07
-2.53507e-07
6.81916e-07
-6.63355e-07
-4.07667e-07
4.7695e-08
2.83543e-06
-5.07394e-12
1.28754e-11
-8.38253e-11
6.23022
33.8199
-33.8465
-16.2377
-2.95113
-0.233673
2.77859
2.80921
-15.3707
28.4511
-18.6285
0.000137891
5.09982e-05
-7.12423e-05
-0.813331
0.0205054
-0.540429
2.47368
-6.87751
0.624733
-4.59337
-1.51327
47.0745
-40.9542
-47.3694
-2.99204
2.29363
0.883457
44.8245
0.417254
-45.1495
2.56759
-37.2558
-46.7786
39.0028
0.374912
1.83737
8.55622
4.97301
8.63327
-17.9569
6.64833
-6.24471
1.34401e-05
-3.08921e-06
1.39562e-05
-6.22912e-06
-8.43736e-06
4.23605e-05
19.1504
-5.36706
-6.44818
3.09159
-9.00475
-3.0263
-11.3698
17.9058
9.40328
-4.4091
-2.70389
11.139
-0.600002
0.699517
-1.18615
1.09204
-0.72001
-0.472519
0.605977
2.76429
-8.72668
0.42102
11.1731
1.00898e-10
-4.54768e-11
-5.75417e-11
-1.13356e-10
4.52599
30.3769
-20.913
-23.9353
-6.40281
12.8632
-12.415
-2.44151
-1.18007
-3.40148
1.54341
9.3481
2.18572
-4.22261
-1.48783
0.270854
-11.9752
11.8562
-9.09012e-06
-3.58387e-05
-0.000128059
0.000571165
0.0236342
-0.0591108
0.0615573
0.0423901
-1.83397
0.506603
-0.322265
-5.18382
-3.50421
-3.61344
4.39735
10.6018
-6.76154
-2.11035
-9.91268e-11
9.10833e-11
-9.03781e-11
1.41409e-10
-3.99669e-12
-1.95409e-11
-13.0026
8.68234
1.29227
-5.54553
-2.81813
0.996663
5.12651
-3.22445
0.225449
-0.00302329
0.0326694
-0.125037
-0.210247
0.60632
-0.266525
0.202769
28.783
2.57103
-17.7263
-16.0236
8.79218e-05
-5.62745e-05
0.000129331
-3.8358e-05
-1.41047
0.632072
0.608612
0.216786
-9.89591e-05
0.0162681
-0.00632169
-0.000730718
-0.00271915
-0.00802217
0.0214637
4.19099
-0.413423
-6.29533
2.50432
13.9334
-27.2401
20.5246
-9.18076e-11
7.16934e-11
1.27944e-10
70.9758
-58.2717
93.1485
-98.9603
33.5325
-3.48456
-5.63196
-16.6105
-4.93198
-13.1671
-47.4005
24.3462
-29.3227
51.8534
6.72178
-7.08394
0.0471832
-7.48807
4.73637
5.17836
-21.9157
12.4917
-1.19786e-10
-9.58807e-11
3.3187e-10
0.00236717
0.00472129
-0.0015821
0.000268584
0.000890379
0.000493144
-0.000448337
-0.000221186
-7.48511
12.7793
2.78055
-3.36157
2.42644e-11
1.70577e-10
-6.69732e-11
-1.20041e-10
0.00294384
0.000377014
-0.00079401
1.90575
-0.881267
4.1157
0.482918
1.59745
-0.475172
-0.229929
5.95192
-22.9237
-2.18939
4.42987
-0.000271095
-0.000212292
0.00772918
50.2939
-22.0263
-26.6755
3.96988
0.979634
-1.54617
-0.132553
-4.55117
5.65998
14.2739
-8.31631
19.3851
8.82159
-7.20263
-18.225
0.00703874
0.000280342
0.0177889
-0.00984542
1.36919e-08
-4.8283e-09
-4.26111e-09
1.28536e-08
-1.01648e-10
4.61285e-11
-3.48328e-11
-7.52896e-11
5.49487e-05
0.000721789
-0.000477711
0.000453279
-0.00155615
0.00231842
0.00144738
0.00608978
-0.00165261
0.00341399
-0.0023928
0.153064
-0.114359
-0.0225935
0.157042
20.1316
6.86974
10.0131
-4.1602
-10.8015
3.17665
-3.18606
5.64957e-11
-2.40732e-11
-1.07522e-11
1.0399e-10
0.0837137
-0.0397096
0.00445591
0.0274802
-0.000279152
-3.72754e-05
0.000885733
0.0700805
0.00405708
-0.00972681
-0.0221846
0.493814
-0.624121
0.730158
0.0296583
-0.00365265
-0.00526149
-0.204802
0.151641
0.264074
-0.251783
-4.59977
-22.6358
-4.87283
0.814475
0.325449
-19.0076
3.5463
17.9812
-1.15741e-05
-5.46478e-05
0.000146964
2.89889e-06
-1.01872
-17.5675
17.3146
8.69428
0.0473914
0.156477
0.0972328
-0.135582
-27.5568
1.65864
17.8179
7.19931
-1.78615
1.36244
-15.7977
16.191
1.4589e-08
3.51619e-09
-3.87768e-09
-1.81973e-09
-3.20451
-10.2903
8.54117
-0.637444
-0.718307
1.17505
0.276468
-6.62793
-6.29051
11.2729
-1.79667e-11
4.04437e-12
-6.14304e-11
5.66649e-11
0.0135673
0.0008411
-0.0054359
-0.00168783
-3.64163e-07
1.44536e-07
3.5088e-07
8.73731e-07
144.935
-184.665
-73.1885
84.1871
-3.36275e-11
-3.7415e-11
-1.54658e-10
3.80291e-07
2.30746e-07
-2.01279e-07
-2.85383
1.4681
3.12662
-1.62512
-4.48171
-7.96555
4.87452
-0.139002
2.04254
2.11756e-06
0.444728
0.213666
-0.182511
-0.300053
-23.4509
18.4846
11.3949
-1.77956
-7.65828e-11
-4.39918e-11
-2.74469e-12
2.06763e-11
-8.29099
-39.049
0.00267042
0.180059
0.027777
-0.0846898
-2.58876
-2.55623
1.64678
6.74234
-1.129
4.94743
-1.1658
-1.10184
2.44215e-06
6.65116e-06
-3.9821e-06
2.46907e-06
3.76544e-11
3.85326e-11
4.39116e-11
-2.17446e-11
-1.23076e-10
-8.01792e-11
3.09823e-11
-4.92452e-10
2.75912e-10
-1.21457e-10
2.2046e-09
8.04727
-12.569
-3.49475
18.2031
0.491972
-0.193317
-0.101417
-3.1301
15.893
-6.49624
-1.39228
7.33404e-11
1.00955e-10
5.91395e-11
6.24028e-11
2.52338e-12
1.19959e-10
-6.50113e-11
1.25133
-0.377429
-0.195042
-0.0756112
3.51833e-10
-6.38293e-11
5.10259e-10
-1.63193e-10
-7.62543
4.22309
10.2116
-1.61836
11.3883
-8.64127
-35.3137
-0.183125
-0.102428
-0.172201
0.458426
1.39705
0.886281
-0.94691
-0.177359
-1.93845
-6.81068
5.11175
6.79505
-15.0632
95.1297
11.6106
0.677383
-101.056
5.4404
-1.73699
-2.96603
2.38868e-10
-5.79473e-11
6.05298e-11
2.69777e-11
9.26497e-11
-2.22917e-12
-6.38029e-11
-6.30639e-12
-2.02874
3.93382
-36.1075
-19.2698
-5.66251e-10
-3.1995e-09
-6.13501e-10
2.30852e-08
-23.4379
2.23207
16.3515
14.138
-2.07829e-09
-1.43846e-08
6.6365e-08
-9.5436e-09
2.29633
3.23906
-27.4886
22.0826
-7.26863e-11
4.94625e-11
5.74696e-11
2.51772e-07
2.31005e-08
-1.49851e-07
2.14104e-07
-1.52541e-11
-8.26099e-11
-2.08402e-10
-1.7792e-11
18.4816
-40.5641
28.9143
0.000138656
1.69171e-06
-2.6266e-05
-3.22616e-05
1.62928e-10
2.95867e-10
-1.89532e-10
3.15283e-11
1.73395e-11
-8.48882e-11
-7.90104e-11
4.67026e-11
-6.68497e-11
0.52061
-0.0475549
-12.3674
17.3667
-2.95123
-47.2622
1.55959
33.8956
24.942
-9.88978
12.4794
14.6005
-7.94279
8.79709
-8.6033
6.50809
-3.5539e-08
-9.87132e-08
1.49441e-07
2.31879e-07
4.97941e-11
5.4859e-11
-1.19775e-10
-5.5055e-11
-4.08742e-11
-1.60812e-10
6.94938e-10
4.58665e-07
-3.68052e-05
-1.7466e-05
0.000149881
-1.05353e-10
7.44868e-11
4.07561e-11
4.33777e-11
3.18411e-11
-6.4253e-11
4.17366e-11
-2.00002e-11
28.8915
-1.45727
-28.4702
-40.1412
5.1462
-5.25083
3.98385
-4.08477
-9.7092
-20.0473
2.38507
-2.35987e-12
-2.84428e-11
0.210339
-0.163734
0.147468
-2.97526
-3.50031
-17.3179
20.62
-10.6915
-4.26972
7.29315
5.41712
-13.9301
-40.233
1.32879
0.61429
-0.833931
-0.154799
3.55421
0.803601
-16.8799
1.31322e-11
7.52212e-12
7.95971e-11
-1.20818e-10
-2.74905e-09
4.08771e-09
-1.84246e-09
5.92717e-09
4.51529
32.4924
-22.3506
16.0166
61.5336
-15.9594
-52.9053
0.00570971
-6.2293e-06
0.0205901
-0.0103541
-1.19562e-11
-6.80788e-12
-1.01616e-08
4.56743e-08
-6.7326e-09
-4.04315e-09
-2.56945e-08
4.41089e-08
6.64097e-08
-0.0693146
-2.66234
-7.45273
8.6181
4.32544e-11
7.29414e-11
-4.34568e-11
6.61947e-12
2.19943e-06
1.26043e-06
-8.49656e-07
1.86958e-08
-85.4447
67.8183
-44.4371
20.908
-2.61116
18.3795
-15.0572
-3.03756
-3.29633
1.2478e-08
1.75922e-07
3.16756e-07
-8.57594e-08
-16.1046
-2.07724
6.02023
-7.90391
-2.82397
-2.51131
-1.25647e-10
2.82643e-11
1.58556e-11
9.3429e-11
-7.54665
7.11481
0.675691
0.654583
-1.07255e-09
-4.95588e-10
5.56448e-09
6.03719e-10
-8.47285
-0.198894
6.39245
1.06798
0.150158
0.0475479
-0.0916344
1.067
-0.553931
4.48468
19.2874
16.8947
-16.6504
-19.7642
24.7285
-9.48644
-7.33471e-11
2.89484e-11
5.22569e-11
-2.15186e-11
7.17597e-06
-1.99481e-06
8.14734e-07
-1.60381e-06
-0.000785054
-7.88634e-05
0.00127341
0.000612262
0.000997445
6.98795e-05
-0.000229651
-0.000223969
5.73509
1.02074
-29.7862
15.1447
22.6412
-7.12061
-5.08714
0.481847
42.2023
-12.2022
-23.7372
0.706818
6.05862
-6.13413
0.000111111
9.46928e-05
-4.51225e-05
-3.45252e-05
-6.56076
-14.7623
-17.3746
3.47557e-11
8.76779e-12
4.11427e-11
2.36143e-11
17.8101
-17.5782
-15.6194
2.92926
-1.94699
-2.67813
8.65994
-4.57595
-20.2327
2.0434
-1.06737
-4.12892
2.35751
0.50405
-0.23974
-0.256076
1.56005e-11
-1.18913e-10
6.89226e-11
-1.76226e-11
2.70696
0.247769
1.91184
-7.67663
-3.92066
13.036
-9.2705
2.97521
0.668264
-0.696809
-1.53782
1.60169
7.36058
-19.8189
-11.8392
34.973
7.0678
-23.6784
5.29273
10.7073
-14.8606
12.5048
-3.42149
4.41172
0.000380915
1.76805e-05
1.27863e-05
1.79844
9.83885
2.53995
-11.8221
1.73883
-0.401116
-11.1275
-17.0499
22.1064
1.33758e-10
-1.40247e-10
4.00685e-11
-1.03372e-10
-0.404162
-38.4877
1.02233
30.6767
-25.9341
0.603896
5.34972
-14.6993
14.1033
-11.9632
19.826
-27.6492
-1.61774
18.5877
-19.9837
0.151783
-1.6143
1.28955
-9.44672
10.397
-8.2035
4.57989
-84.309
-14.4968
149.999
13.843
-21.8643
11.351
-6.88303
-21.1157
17.5052
4.23011
5.86782e-06
2.19677e-05
-8.22302e-07
8.6099
-25.7054
-9.31106
23.4258
109.321
-124.785
7.23783e-06
5.99971e-05
-1.9458e-05
2.27009
-0.115296
4.09687
-10.4477
4.11263e-07
1.5802e-07
-2.41606e-07
3.37671e-07
-0.941276
6.36649
3.58702
4.96786
-9.03091e-11
-1.3969e-12
-1.28894e-10
5.10555e-11
13.5034
-8.62125
1.37157
-5.21018
8.13937e-11
2.73137e-11
1.2498e-10
3.67249e-11
1.06538e-05
-1.07922e-05
-5.22248e-05
0.000181411
-10.304
6.3388
-4.55967
-2.89527e-08
1.82518e-07
3.12992e-07
-1.01183e-07
-0.000349864
-0.000277611
0.00133222
-9.92241
-1.68834
14.8731
-5.6847
96.9836
-88.9192
99.8179
-68.1993
-53.7859
6.7688
3.12869
0.000865589
0.000288903
-0.000376425
-0.104901
-0.111225
0.129138
0.242721
-9.00279
11.507
-26.6868
30.3465
-8.73122
2.28744
-11.4311
0.943732
-7.59576e-13
-4.05601e-11
6.0806e-12
-11.1124
4.93436
-9.38402
19.9398
17.4761
-0.627562
0.694724
-8.73036
1.13803e-10
9.11247e-11
-8.82648e-11
-1.71616e-10
1.20503e-10
-8.21273e-11
-1.15165e-10
-5.71754e-11
-5.13469e-08
-2.58809e-07
-2.38678e-06
6.96523e-06
-26.6013
-7.92402
7.99011
26.6504
1.25005e-11
-2.45563e-11
5.30016e-11
-10.4956
-1.96671
1.05224
11.6549
-31.843
10.8929
-22.1778
-4.85
-6.21576
-5.12609
16.3847
-1.1835e-11
-1.01424e-10
9.44924e-11
10.0488
17.0538
-4.7536
-18.0942
0.276118
0.489192
0.716025
20.4676
3.12533e-11
-8.47151e-11
-8.33628e-11
-5.84159e-11
12.9248
8.73682
-4.59402
-9.10503
-0.500953
0.177894
-2.57216
-2.74704e-11
1.12791e-11
-8.21602e-13
5.34603e-11
-4.0131e-11
5.99866e-11
-7.31624e-07
-1.76664e-07
5.87365e-07
1.95175e-06
4.11079e-08
4.06817e-07
4.94715e-09
-8.23938e-08
-6.48737e-10
-3.41503e-11
2.84639e-09
2.86931e-10
17.2621
1.03448
-3.49262
1.59255
-3.94003
-14.1033
-4.46059
15.3407
-6.96574e-11
-1.12907e-10
-18.7855
6.8063
29.2244
6.9416
1.98884
1.72007
-7.60416
1.83733e-11
7.60199e-11
-1.08674e-10
-1.48025e-10
-2.94088e-11
-1.04298e-11
-1.76151e-11
4.33315e-11
-4.98088e-12
6.76827e-11
-2.31284e-11
-5.81435e-12
-6.46015e-12
1.03078e-11
7.84262
12.668
-16.5688
15.2336
1.21265e-10
-6.41489e-11
1.31133e-12
7.04608e-11
3.93886e-07
2.80899e-07
-2.37999e-07
1.18263e-07
-2.5461e-11
2.90203e-11
3.5009e-11
8.00104e-12
3.76706e-11
8.54136e-11
-5.82566e-11
3.24286e-12
-4.37532e-11
7.82672e-11
-4.11835e-11
-7.75869e-12
5.02243e-11
-9.41596e-11
3.34138e-11
-21.261
-4.60756
3.44162
15.9891
12.6084
-44.9713
7.138
27.2845
-0.042124
0.258111
-1.14887
2.13793
4.46813e-11
2.51812e-11
1.75688e-11
-7.06264e-11
-1.24465e-11
-10.4618
-1.37772
10.3221
2.2926
-1.33389e-10
-9.92573e-11
1.18166e-10
8.49931e-11
3.3707
-5.27774
4.09338
6.76046
2.27088
4.93637
-6.18047
8.77088
-3.84984e-12
1.34254e-11
-1.34132e-10
-7.00616
-4.3024
20.8446
-9.41645
-0.0537717
-0.575517
-1.3423
-6.8025e-11
1.44721e-11
2.34426e-11
-8.18345e-11
0.176354
-0.0290506
-0.0721736
6.00502e-11
7.15172e-11
-4.35813
14.5424
-3.01901
-7.61051
-5.98733
3.57383
8.42287
-2.47073
11.2397
-1.60373
9.70085
-23.4749
5.41312
-1.16411
-0.199884
-4.1738
2.31881
-0.698305
-1.4207
3.47534
-9.57385e-12
4.87922e-12
3.51469e-11
14.8157
8.58911
-11.9913
-15.5156
-6.25298e-11
-1.16829e-11
1.58845e-10
7.31617e-11
-3.39916e-11
-5.3279e-11
-1.57919e-10
-0.00396715
0.0670419
0.00651561
-0.0300484
1.61812
3.26002
-4.02874
-1.03301
-0.282054
-0.665363
-8.44535
3.76046
31.3871
-28.1649
4.73633e-11
-1.01798e-10
9.2836e-11
-12.0063
-0.602499
3.02492
13.1871
-1.32629
-7.17266
16.4648
7.72675
-21.5469
1.29547e-10
1.27042e-10
-8.86943e-11
-8.82807e-11
-4.21853
-8.82341
-15.2863
25.1525
-0.976388
-16.7995
-7.17642
5.45233
0.215502
1.6143
16.6661
-29.4092
-48.9267
13.5404
-1.72847
-13.9405
6.07007
0.432865
-7.07424
2.19154
-2.12423
-0.0611619
0.0134131
0.77874
-2.21305
1.89303
-0.423261
-6.23488
9.70673
-8.23459
-22.1458
12.2106
-5.53044
-18.2132
2.84744
3.16403
13.5625
-10.2108
-2.21042
8.40697
16.02
17.1863
-24.1158
-5.08605e-08
-5.44998e-08
2.52961e-07
-36.6998
-4.71255
40.2473
3.02185e-09
1.23234e-09
-1.40317e-09
-10.6137
8.67851
6.55879
-3.60906
7.46199
-6.81164
10.6974
-1.1971
-1.3325
1.20652
2.98474
1.12455e-10
-3.64549e-11
-1.62164e-10
-1.21743e-11
8.8195
48.2967
-49.3322
1.97696e-06
-1.51981e-06
-3.05064e-07
4.49959e-06
66.3357
45.7896
-86.061
37.7671
52.6236
-8.90052
-10.5113
-5.13703
-5.04238
20.7908
0.259438
0.520724
0.0031227
-0.748327
1.57896
-4.17954
-1.08427
7.38675
-1.389
-0.437865
3.169
-1.35026
-8.23166
26.4962
-14.2378
3.82781
-1.03081e-11
4.09493e-11
1.20199e-11
1.12441e-11
0.0458591
6.15986
8.53805
-11.4855
-0.0497874
-0.0136272
0.130219
-0.374507
1.31705
-0.068804
-0.891015
-1.24294e-10
-5.83345e-12
2.44863e-10
1.0132e-10
5.47711e-10
-2.26035e-10
-1.22046e-10
1.88686e-10
29.5351
-1.04025
-6.28754
-9.84281
23.8843
-96.9178
73.9925
-17.9681
13.4091
8.12382
14.7201
-0.673466
-4.40754
-3.00975
2.95149
4.60041
4.30955
3.22805
-4.87037
0.440552
-8.4188e-05
0.000612854
-0.000154087
54.7692
79.403
-86.5712
-44.6265
-25.0876
168.393
-63.276
-78.8923
1.22115e-08
-3.8484e-09
4.72646e-09
-1.63409e-10
-2.56363e-11
7.55352e-12
3.1226e-11
6.97796e-12
1.59861
5.16763
2.30474
-6.21951
8.61336
-14.659
5.81685
63.7719
-34.1858
4.48749e-11
1.50161e-11
-1.53549e-10
-13.0232
0.736855
8.2777
2.34271
0.137243
-0.828926
-0.414746
5.35411e-11
-5.44448e-11
-2.63994e-11
8.46294e-11
-4.50542
-13.8764
-4.91911
21.125
-0.108779
0.244702
-0.0019527
3.145
-0.130769
-0.766879
6.1069
-20.5591
22.6045
3.69079e-11
-9.86284e-13
5.8003e-06
0.000237094
-6.55076e-05
-11.5162
4.9193
-0.470953
5.21237
2.14876
7.73842
-8.77883
1.69249
11.0961
-1.76316
-4.65633
16.8742
-24.7996
53.3013
-42.1655
-6.11453e-11
7.72357e-11
2.01868e-10
-1.36693e-10
6.53593e-10
-6.14862e-09
-3.05557e-09
3.299e-08
1.66446e-11
-2.0461e-11
1.23116e-10
-4.96991e-11
4.78997
2.32899
-4.42365
-2.69258
0.120354
-0.0263656
-0.0469555
0.0207428
-3.60117e-12
3.58195e-12
-1.03486e-11
5.36665e-11
-1.17292e-10
-10.1242
14.6571
15.8141
-23.9766
8.39215
-11.811
3.86796
0.648811
-1.72262
-1.40492
1.07379e-11
-2.17882e-10
4.30215e-11
-5.56838
8.16633
-1.39389
0.791163
-1.03008e-10
-3.56126e-11
18.3782
-15.3948
-4.55112
24.4259
-5.98217
-25.9665
-9.05979e-05
1.40329e-05
0.000274473
2.39735e-05
17.7054
-29.3056
-40.5427
10.2083
-24.2275
12.7943
-12.9423
-25.1173
5.69105e-12
4.28569e-11
1.3206e-11
0.0826751
0.00847692
0.805112
-0.43838
-30.9265
35.7923
3.04429
-13.2764
-34.3733
-49.2533
85.9974
4.92147
14.3336
16.2266
-23.1693
-15.9694
31.5699
-110.843
106.612
-29.6187
-2.88272e-06
-3.58379e-06
1.57418e-05
-103.066
110
-18.8876
5.55101
6.12501
-1.97322
-0.774978
-0.596073
73.4598
-78.9903
-61.8581
61.2748
4.54791e-11
-1.92579e-10
-1.23973e-11
9.73531e-11
0.0542284
0.100033
-0.0624967
9.38158e-11
-6.45555e-11
-8.75604e-12
-2.11938e-11
1.5903e-10
1.20604e-10
-2.82814e-11
-1.04736e-10
-1.21962e-11
6.04108e-11
-9.27099e-12
3.66565e-11
45.7939
-51.5524
4.37234
1.52276
-1.51157e-10
-4.9533e-11
6.35415
28.3004
-25.9279
-1.06999e-09
-1.81974e-10
9.25629e-09
-1.35709e-09
-7.87254
0.585063
12.6217
-16.4207
4.0145e-11
3.29051e-11
-7.52919e-11
1.68047e-11
-42.6807
-13.0943
10.6636
8.9194
-0.116138
-6.60384
24.5705
-15.0307
-13.1623
-27.6865
39.1516
1.00478
-1.49413e-07
1.69589e-06
-4.42198e-07
-5.05802
-9.69277
5.90756
5.0962e-09
-2.60674e-11
-1.38199e-09
-7.72048e-11
37.3344
-57.9596
-170.807
190.545
-38.9535
35.2195
-8.47222
-0.9642
1.57723
-0.652939
-11.4396
16.4943
-2.25729
1.99806
-1.58619
-37.4408
0.00477007
0.00471649
-0.0516449
0.120754
4.16958e-10
1.38283e-09
-4.86471e-10
-1.71786e-11
23.9642
-2.01178
-19.5188
-3.23541
-21.3631
1.17783
12.3161
4.51245
3.90061e-11
-2.82619e-12
-2.13119e-11
3.2315e-05
-1.93674e-05
7.24623e-05
-10.626
-7.63811
7.56236
5.5235
3.4208e-05
2.97027e-05
-52.5473
0.00142404
49.8642
1.81103e-08
4.56965e-09
-5.68031e-09
1.17009e-09
-3.02925e-12
1.88274e-11
-4.50629e-11
8.57586e-11
6.60428e-11
-3.77678e-11
4.30095e-10
6.59332e-11
-0.0106973
0.0606299
-0.0627464
-3.57388
-6.94352
12.1201
3.44208e-12
1.69343e-09
-1.72689e-10
-1.0039e-10
-5.54676e-11
3.52556e-12
-3.03479e-11
6.57108e-11
-20.88
-94.0874
48.7199
60.7825
36.0032
-19.2725
-6.74903
-7.27446
8.18718
9.24252
-0.763571
-9.12039
-1.36424
6.68702
-0.939263
-1.43564
0.158691
-0.00510703
-0.0471147
-0.0236722
1.15555e-06
6.67416e-07
-6.48315e-07
-41.2474
7.29979
15.9342
-8.35671e-09
-9.88345e-08
4.20046e-07
-2.98042e-08
4.70085e-11
1.18949e-11
-8.15833e-11
-0.476198
-0.353739
1.07265
0.302057
-4.24963e-11
-2.00502e-10
-1.85946e-10
1.26471e-09
0.000141846
-8.93214e-05
0.000129359
5.08854e-05
-1.04797
-7.78283
13.4316
-4.40052
-33.5745
7.54204
36.9741
-10.4885
4.26034e-11
1.31474e-11
-1.18142e-11
-1.04401e-11
-1.35282
4.53098
-1.74044
3.35779
-3.40924
-3.10791
3.29931
7.28281
-25.5684
7.17548
10.0924
1.30787
-4.3975
-4.46278
7.05023
-3.87642
-21.5776
5.27795e-11
2.16676e-11
1.05581e-10
2.79368
-4.80212
-4.17557
2.02248
-19.4787
-5.56492
1.45646
5.54713
-0.194703
0.302767
7.44201
-4.35287
0.033181
10.8622
4.59301
-3.62921
1.59609
0.882387
6.30534e-05
-3.92278e-05
-5.25447e-05
0.00022035
-99.0797
16.5392
37.916
38.8897
0.0516236
-0.0168051
-0.00566738
0.00226877
-8.53518e-06
1.5925e-05
4.7416e-05
-1.40051e-05
-11.6348
38.2676
-25.3406
19.3658
-12.9735
-30.601
24.6057
0.587567
-0.119286
-0.334971
-0.125431
2.05801
-4.26066
-0.463318
2.7482
-2.3222e-12
3.22145e-11
6.27202e-11
-5.94642e-11
-1.96818
-3.46393
1.46186
6.73352
7.28576e-11
2.7679e-11
7.51345e-11
4.77991e-11
9.73739e-05
-5.15871e-06
1.43932e-05
-3.31589e-05
6.34451
-27.1449
28.6954
-7.37415
-1.1405
0.578307
0.547075
-21.0982
-5.44745
-21.0178
20.3576
-48.0463
-13.3949
41.5432
-7.36463
2.9912
-4.49122
4.05765
0.155554
-1.62856
-0.128316
2.37286
8.43367
-51.2239
21.918
-0.027627
0.0763039
-0.025031
0.0300995
17.4849
7.39667
-23.5678
0.254667
3.35488
-9.4605
3.36878
-2.07094
-6.38172
-32.4067
-39.8977
-2.64321
5.06864
-5.54879
-0.229495
-0.920441
6.12381e-12
2.15852e-12
6.99767
-4.08321
8.91227
-0.00316308
0.00444172
-0.00997211
24.2144
-17.4329
24.2537
-1.18678
0.300315
20.6529
7.98696e-09
4.40153e-08
-4.42056e-09
5.70209
2.20996
6.83414e-12
2.02442e-11
-1.16016e-11
-4.26536e-11
-1.32563e-12
3.94602e-11
-1.17571e-10
-4.13762e-11
22.7877
-11.4001
-2.14274
-6.67909e-11
-2.78864e-11
2.3601e-10
-14.0955
6.53535
8.07885
-11.9026
6.13271e-11
-2.77705e-11
1.5675e-11
8.92651
-39.4957
29.8467
0.921749
0.278979
-0.138588
-0.476965
-14.8189
-11.6777
2.44969
1.95301
-1.85995
-11.7891
4.14483
12.9128
3.98901
-10.2712
8.3789
0.00249043
-0.000140274
-0.000307376
-0.000240324
9.71252
-28.2811
-4.65287
24.3772
22.0706
4.80626
-20.2191
-0.524155
-11.3884
50.166
-25.0734
-7.24496
4.72334
21.3414
-18.8694
-6.71707
1.41585e-10
-7.47399e-11
2.88065e-11
-15.9499
-5.75074
22.0939
-1.84458
-29.9305
-23.5995
31.4257
-44.1223
10.9017
-15.0473
26.4869
-6.95982
6.53156
-2.91269
-5.69756
19.0551
-13.2744
6.26761
-5.15346
10.4752
23.6879
-6.33954
-6.51968e-12
1.90626e-11
-2.11532e-12
-5.41446
-9.22943
0.000334414
0.000263865
-7.99417e-05
-0.00014672
-4.62977e-11
-5.50124e-11
4.26465e-11
1.11618e-10
-1.28157e-07
4.48128e-06
-1.34072e-06
6.06855e-07
0.996432
-3.71357
1.55309
4.47255
-0.0800351
6.46948
0.81881
2.00794e-08
-7.39746e-07
1.80255e-06
-11.3865
-0.229836
-1.93441
22.972
-13.5587
-2.07795
24.5421
-2.83309
-25.6833
51.8516
-24.906
18.52
-44.7572
6.36915e-11
-2.89231e-11
1.05481e-10
-3.85027e-11
4.52357
6.30431
-8.83005
6.99549
-6.47802
16.8623
-15.5764
2.15191e-11
-4.88694e-11
-1.65827e-11
-1.99394e-10
1.09049e-10
2.39575e-11
1.60941e-10
-3.55846
1.81086
6.12344
-3.56438
14.7562
-6.70505
-4.79682
2.35752
-3.65618
8.18764
29.4562
-27.166
-1.89974
-1.28534e-10
8.13242e-11
-9.70586e-11
7.605e-11
-1.20384
2.2043
3.80458
-4.83051
0.0113357
-15.6844
6.27581
-14.1599
-11.4491
11.8869
9.92349
14.4562
-17.952
1.59052
-4.41674
-7.3123
-7.96931
6.89118
-9.63775
2.43985
-0.000377232
0.0012366
-0.000178304
0.00019309
-9.70253e-12
6.51661e-11
-1.41963e-11
-4.25654
1.02821
5.35597
-2.21865
1.54012
-3.31015
4.54029
-2.77647
-18.6068
-12.3374
6.86495
13.5224
-27.4814
4.3966e-11
9.24843e-11
-1.17984
6.11918
-3.21613
0.962497
-2.99075e-11
-1.69831e-11
-5.97158e-11
-4.41143e-11
-22.8668
11.4997
22.3429
-6.98222
-14.7296
12.2389
5.30175
9.4032
11.8442
16.8256
-13.8043
-9.9381
-35.6417
-5.96071
21.6356
29.9707
29.2304
7.69821
-33.8706
2.12088e-06
-9.26379e-07
2.82997e-07
-1.22367e-07
-0.365445
1.17962
-1.37252
-0.212492
-4.22414e-11
5.30583e-11
-3.75259e-11
5.78999
-2.63264
11.9971
-6.45157
27.7098
-0.0446513
-19.4404
-0.662225
-0.375724
-1.04599
2.22465
3.11502e-06
-4.92911e-07
5.31029e-07
-4.89785e-07
-3.68774
11.5803
-11.7205
12.6701
-1.83371
-0.00614846
0.00996765
0.00392587
-22.1947
-0.813748
1.42281
0.02262
1.51509
11.8524
-10.7092
0.353593
13.6404
-10.5895
-3.32416e-08
8.46926e-09
-1.02135e-08
9.78996e-08
4.99171
0.951457
-0.602366
-2.73978
15.6835
2.97068
-11.8558
-4.7711
-0.0134927
-0.0244869
0.0526342
0.0307868
-32.4486
24.3767
11.6018
5.66851
13.1561
-8.93043
0.778002
-0.025513
0.036106
0.0204288
-0.0118288
20.4086
-105.216
-1.34651
-4.54336
2.85227
16.2825
-2.69855
1.38852
2.98748
-66.2817
7.19619
59.5351
-1.2912e-12
5.03277e-11
-1.28461e-11
4.95896
-6.14285
1.70614
-19.9219
16.6883
-19.5949
-0.0218727
0.0384653
-0.041899
0.0903532
2.06432
16.7907
-10.3495
-3.37133
-7.47365e-07
-7.9899e-07
1.6026e-07
4.31203e-06
-14.4147
-1.27114
27.8861
-12.4533
4.49878
-22.6704
2.18555
16.3233
1.25098
18.7704
-39.1899
1.69973
-4.09175
5.6989
-0.665061
-7.94941e-05
-3.26797e-05
0.000289889
9.46153e-06
-18.0368
23.3699
-0.351351
-27.963
-14.1951
6.59176
-11.2223
6.86369
-19.1408
-5.31387
-6.55105
51.9443
6.5174
3.50784
-9.15291
-2.07154
9.93889
-44.4092
-10.2242
-26.7418
-4.51545
22.1176
-17.3388
-21.7172
24.1669
12.1904
-13.0121
-13.0843
13.7518
-14.9502
-16.6784
-2.36058
32.2035
44.7673
-14.9593
-38.3851
-5.07777
6.7354e-08
2.19112e-06
-8.22757e-07
1.72572
-0.489845
-0.926027
0.556619
1.57143
-0.287604
0.615158
-1.07186
6.90479
-3.44073
-2.04035
0.504565
4.33889
3.74022
-0.336446
-4.06575
20.9639
-33.7152
7.67966
1.6342e-11
9.16694e-11
6.90109e-11
-1.93583e-11
-0.00212785
-0.00174656
0.0102734
-0.000526461
-4.88527
1.14503
5.33506
16.8163
9.90092e-12
-0.000575723
0.00191226
-0.00081066
-1.81519
5.13177
-5.31549
-2.3055
23.1811