/*--------------------------------*- C++ -*----------------------------------*\
| =========                 |                                                 |
| \\      /  F ield         | OpenFOAM: The Open Source CFD Toolbox           |
|  \\    /   O peration     | Version:  2312                                  |
|   \\  /    A nd           | Website:  www.openfoam.com                      |
|    \\/     M anipulation  |                                                 |
\*---------------------------------------------------------------------------*/
FoamFile
{
    version     2.0;
    format      ascii;
    arch        "LSB;label=32;scalar=64";
    class       volScalarField;
    location    "0.35";
    object      T;
}
// * * * * * * * * * * * * * * * * * * * * * * * * * * * * * * * * * * * * * //

dimensions      [0 0 0 1 0 0 0];

internalField   nonuniform List<scalar> 
32842
(
300.028
299.887
300
300
300
300
392.61
250
300
299.999
250
250
299.807
300
300
300.007
299.935
300
300.118
300
300
299.915
300
300
299.938
300
300
300
303.445
299.998
301.39
300
250
299.886
250
250
299.71
299.994
299.833
299.992
300
300
300
300
299.946
299.942
301.018
299.763
300
302.269
250
300
299.989
302.23
300
300.198
300
301.585
300
300
250
299.847
300
300
299.896
301.186
300
299.875
300
299.953
300
299.71
300
300
300
299.938
302.77
300
299.994
299.767
300
300
300
300
300
300
300
299.791
302.121
300
299.991
300
300.94
300
300
299.874
299.99
300
300
300
300
299.724
300.047
299.648
299.985
299.511
310.415
299.992
300.018
299.863
300
299.998
301.109
300
299.976
300
300
300.299
300.109
299.859
299.994
299.999
302.148
300
299.994
300
299.762
299.883
299.821
300
300
299.83
300.228
300.186
300.067
300.099
300.033
299.746
299.867
300.006
299.805
299.951
300
300.289
299.957
299.966
250
299.994
300
299.956
299.993
299.871
299.977
300.272
299.9
300
300
299.995
300.074
300
300.051
300
300
300
299.825
299.914
300
299.905
299.913
302.66
299.895
299.976
300.168
300
300
299.936
299.837
300.017
300
299.998
299.821
299.926
299.922
300
300
299.926
299.859
299.974
299.875
299.829
299.856
299.829
300
300
300
299.773
299.786
299.768
300
299.992
299.792
299.811
300.005
303.052
301.414
299.996
299.919
300
300
299.968
299.922
299.806
299.824
299.856
299.947
300
299.961
299.997
300.028
299.984
300.017
300
300
300.046
300.065
299.989
300
300
299.864
299.466
299.999
299.998
299.88
300
299.845
300
300
299.674
299.872
300
302.531
299.909
299.992
301.332
299.788
299.788
300
300
300
299.956
300
300
300.034
299.991
299.703
300
299.9
299.845
299.955
299.904
300
300
300
300
300
300
299.999
299.803
299.899
300
300
300
300
299.991
300
299.926
300.019
299.784
300
300.004
299.999
300.33
300.582
300
300.003
300.073
300.035
300
300
300
250
300
300
299.896
302.209
299.857
300
299.998
299.674
300
250
299.999
299.97
299.985
300
300
300
300
299.721
299.998
299.964
300
300
299.996
300
299.967
299.933
300.336
299.994
300.011
300.01
302.439
299.986
300
300
299.978
300
300
299.876
300
300.01
300
300
300
299.84
300
300
300
300
299.933
299.853
300.026
300.056
300
300
300
300
300
300
300
300.073
300.083
300.032
300
299.999
299.917
299.924
299.969
299.996
300.023
300
300
299.851
302.291
300
300
300
300
299.897
300
300
250
299.894
299.981
300
299.868
299.967
300
299.875
300
299.948
299.999
300.078
299.946
299.892
300
300
300
300
299.907
299.953
299.864
299.959
300
300.011
300
299.956
300.064
300.048
299.857
299.793
300
299.929
299.863
299.863
300.069
299.851
299.943
300
299.728
299.961
299.889
300
299.942
299.921
299.981
299.99
299.989
300.116
250
300.17
299.852
300
299.894
250
300
299.995
300
299.891
300
299.986
300
300
299.803
300
300
299.91
263.588
301.007
300
299.999
302.68
299.919
300
299.932
299.891
300
300
300
300.046
300
299.73
300.147
300.208
300
299.844
299.937
300
299.845
300.058
300
300
300
300
300
299.836
299.965
300
299.849
300.086
300
300
300
300
299.899
300
300
300
300
300
300
300
299.863
303.772
300
299.991
300
300
299.828
300
299.73
300.178
300
299.85
299.866
300
299.999
300
299.61
299.697
299.885
299.755
299.868
300
299.772
300
300
300
299.644
300.057
299.883
300
299.703
300.034
299.906
300
300.029
299.886
300.014
250
301.635
299.558
299.927
299.954
300.113
299.899
299.902
299.94
299.907
300
301.464
300
299.935
300.185
299.99
300
302.731
300
250
303.325
300.104
299.78
299.96
299.866
299.86
300
300.088
299.999
299.746
300
300
299.951
302.606
299.829
299.974
299.989
299.967
300
302.571
302.96
300
300
300.05
299.939
302.832
300
299.999
299.992
300
300.538
299.999
299.902
302.039
300
300
299.957
299.923
299.903
300.657
300
300
300
299.623
300
300
300
299.925
299.965
300.055
300
299.965
300
300.007
300.699
300
299.997
301.213
299.915
300
299.997
300.935
301.022
250
299.869
298.873
300
302.383
299.966
302.431
300
300
300
300
300
302.946
300
299.906
300
299.954
300
299.999
299.959
300.106
303.297
300
300.143
300
301.686
302.801
299.635
299.727
302.82
300
300
299.915
302.015
300
300
299.915
300
303.128
300
300
300
300
299.773
300
300
302.567
303.415
299.986
299.989
300
300
299.919
300
300
299.995
300
300
301.125
300.664
300
299.985
301.383
300.138
299.806
299.955
300
299.991
299.836
299.826
299.951
301.477
300
301.755
300
300
300.724
300.749
300.025
299.773
300
299.984
300
300
300.675
300.328
301.019
300.582
299.792
299.769
300.743
300
303.651
299.935
299.926
300.272
300.321
300
299.77
300
299.922
299.931
300
300.004
300
300
299.73
300
299.818
300
299.882
299.997
299.75
299.973
299.918
300
299.846
299.916
299.868
299.884
300
299.727
299.936
299.871
299.971
299.877
300.113
300
299.918
300
300
300
299.884
300.086
300
299.848
300.033
299.842
301.649
300
299.93
299.896
300
300
299.848
299.822
299.835
299.858
300
299.988
299.891
299.87
299.765
299.908
299.787
300
300
299.914
299.895
299.902
299.85
300
299.972
300
299.866
300.001
299.906
299.87
302.49
300
299.907
300
299.792
299.941
300.02
300
299.822
299.93
300
300.081
299.992
299.933
299.938
300
299.991
299.922
300
299.845
299.94
300
295.504
300.098
299.919
300.235
300
300.06
300.104
300
299.953
300
299.921
299.918
299.879
299.985
300
299.932
299.927
299.966
299.918
300.166
299.957
299.953
300.001
299.813
299.649
299.961
299.946
300
299.995
299.945
299.98
300.239
299.846
300
300
300.092
300
300
299.912
299.95
300
250
299.839
303.385
300.04
299.92
299.674
299.849
299.97
299.888
300
300
299.951
301.707
300
299.964
300
300
299.996
299.99
301.174
299.765
299.85
300
299.754
299.902
300.134
300.01
299.958
299.785
299.937
300
299.908
299.914
299.874
301.889
300.031
300
299.97
299.903
299.982
300.053
300.036
300
299.973
300.07
300
300.057
299.919
300
299.902
300.014
300.177
299.936
299.991
300
299.947
303.785
299.933
299.951
303.098
300
299.989
299.885
299.995
300
300
299.996
299.767
299.98
300
300
299.937
299.918
300.113
299.999
299.865
300
299.888
299.897
300.145
299.906
300
300
299.846
299.73
300.038
299.932
300
299.887
300.063
300
300
300
299.767
300
300
299.814
299.925
300.072
300
303.425
301.684
300
299.883
300
300
300
300
299.865
300
299.934
300
300
299.838
299.962
300
300.648
299.972
300
299.888
300
300
300
300
300
301.476
301.017
301.728
299.918
300
300
300
301.74
300
301.27
301.283
302.379
302.984
300
300.116
300
299.761
250
299.993
299.834
299.776
300.144
300
299.961
303.413
299.844
299.838
300
250
300
300
300.106
300
299.888
300.043
299.777
299.987
300
299.897
300.051
299.997
299.902
300.047
299.855
299.882
299.831
299.896
299.954
299.355
300.701
299.806
300.01
299.853
299.779
299.886
299.904
300.132
300.118
300.197
299.999
299.956
300.205
299.823
299.733
299.779
299.985
299.891
299.61
299.853
299.937
299.756
300
299.853
299.971
299.96
299.947
299.932
300.013
250
299.936
300.115
299.783
299.953
300.428
299.847
300
299.95
299.736
299.887
299.883
299.717
299.995
299.866
299.888
299.965
299.849
299.988
299.878
299.957
300.69
300.001
300.01
299.9
302.617
299.753
299.885
299.793
299.969
299.701
299.821
300.01
299.939
299.743
299.911
299.808
300.16
299.965
299.88
250
299.747
299.845
300.061
299.814
299.84
300.004
299.822
299.923
300.02
291.18
300
300
299.906
300
300
301.115
300.019
299.902
299.866
299.98
303.965
301.331
299.988
299.979
299.936
299.85
303.197
299.893
299.989
299.855
300.225
299.84
300.163
300.006
299.978
303.094
299.998
300.143
300.027
300.033
299.898
302.361
301.069
299.929
299.985
299.871
300
299.975
299.891
299.8
300.248
300
300
299.961
299.853
299.917
303.503
300
299.932
299.937
300
299.926
299.928
300.173
300.347
299.816
299.937
300.279
300.17
299.965
299.818
299.875
299.999
299.903
299.812
299.87
301.848
300.168
300.035
301.552
299.692
299.903
302.873
300
300.162
302.1
299.668
300
299.829
300.486
300.005
299.981
303.192
299.972
300.026
299.751
300.09
299.866
299.897
299.925
299.778
300.108
299.979
299.971
300
302.137
300.264
302.83
250
299.908
304.128
303.158
302.279
299.938
299.796
250
300.259
300
299.938
299.79
300
300
299.828
300.25
299.967
300.208
299.763
300
299.769
299.963
300.029
250
299.914
299.915
300.008
300.09
299.914
300.178
299.862
302.76
299.929
300
300
300
300
299.942
250
300
299.963
299.769
303.285
299.693
300.19
300
299.884
299.954
300.036
301.173
300
300
301.948
300.013
300.228
299.952
301.614
299.867
300
299.696
299.922
299.819
299.824
300.15
300
303.195
303.089
299.859
300
303.47
299.786
300.151
299.96
303.55
300.13
300.028
300.119
300.08
300
299.903
299.968
299.962
300
300
299.773
299.91
299.856
300
299.784
301.649
299.978
300
299.894
299.798
299.877
299.857
300
303.132
302.594
299.883
299.88
300.005
299.865
299.96
299.871
299.8
299.925
299.95
301.651
299.922
299.975
299.928
299.855
300.048
299.868
300
299.977
299.929
299.896
299.924
299.999
300.55
299.796
300
299.945
300.01
300
300
299.962
302.287
299.973
299.875
299.988
299.771
299.822
299.858
299.931
300
299.936
299.981
299.957
299.861
300.077
300.042
299.933
299.989
299.971
299.975
299.558
299.928
299.852
299.897
299.902
300
300.007
300.085
299.696
299.902
300.025
299.904
301.963
299.887
300.046
299.751
299.938
299.99
299.984
300.15
299.952
299.981
299.805
299.792
299.612
299.885
299.971
299.869
299.903
299.819
300
299.72
299.86
299.929
300
299.908
299.89
300.989
299.996
299.896
300
300
299.76
300
299.812
299.655
300
300.511
299.871
300.79
299.87
299.707
299.766
299.724
300
299.68
299.899
299.937
300.018
299.631
301.572
299.981
299.936
299.916
299.477
299.919
300
299.941
300
299.792
299.972
299.912
300.263
300.083
300.052
300
300.189
299.894
300.048
299.86
299.866
299.916
300.123
299.924
299.996
299.88
300.495
299.832
299.824
300
299.876
299.927
299.951
299.896
299.999
299.789
299.915
300.032
300.022
300.003
299.894
299.963
300.018
300.001
299.966
299.764
300.158
300.054
299.759
300
299.88
300.025
299.493
299.969
300.031
299.822
299.903
299.914
300.024
299.87
299.726
299.592
300.171
300.057
300.025
299.861
299.924
300.119
300.119
299.985
300.07
300.291
299.958
299.768
300
300.049
299.765
300.235
299.557
299.869
300
299.962
300.146
299.826
301.489
299.965
299.72
300.18
300
299.969
299.88
299.895
299.904
299.9
299.758
299.867
299.896
299.848
299.75
299.969
300.027
299.851
299.941
299.884
299.95
300
299.928
299.867
299.886
299.694
299.893
299.524
299.469
300.073
299.846
302.266
300
299.951
299.925
299.788
299.931
299.962
299.924
299.814
299.476
302.767
299.816
300.029
300
300.265
299.802
299.416
299.903
299.9
299.872
299.936
299.933
300
299.877
300
299.921
300
300
303.516
299.987
299.743
300
299.882
299.852
299.832
299.759
301.336
300
299.909
299.898
299.943
299.957
300
299.855
299.872
300
299.868
299.922
299.916
299.98
300
299.627
300
299.885
299.938
299.588
300
299.997
300
300.039
299.938
299.987
300
300
300.103
299.731
299.624
299.753
299.869
300.137
300
300
300.036
299.894
300
299.811
299.91
300.165
300.014
299.842
300.493
299.958
299.863
300.147
250
300.144
300
299.983
299.96
300.087
299.634
300.154
299.718
299.843
299.905
300.181
300
300
299.874
299.859
299.873
299.911
299.846
300.201
300
299.981
299.99
299.999
300
300
299.826
300
299.996
299.951
299.867
300.109
299.99
300.008
300.209
299.976
300.082
300
300
300
300.259
300.082
299.933
300
299.621
299.915
300.077
300.039
300
299.885
299.824
300.11
300.019
299.962
300
299.982
299.95
299.821
300
300
300.111
299.85
300.14
299.755
300
300
299.905
299.85
299.951
299.724
299.991
303.408
299.799
299.747
299.944
299.988
299.773
300.033
300.041
299.821
299.588
299.999
300
300.576
299.97
300.072
299.991
302.824
299.956
299.909
299.906
299.909
299.963
299.918
300
299.977
299.882
299.927
300.035
300.269
300
299.901
299.929
299.947
300
299.883
300
299.986
300.009
300.062
299.91
299.527
299.849
299.887
299.851
299.908
304.12
299.998
300
299.938
299.905
300
299.85
299.895
299.923
300.172
299.944
299.92
299.983
299.975
299.852
300
299.892
300
299.782
299.99
299.984
299.899
299.972
299.932
299.858
299.876
299.978
300
299.781
300
299.971
299.898
299.847
300
300
303.013
303.17
299.862
299.891
300
300.109
299.797
299.948
299.904
300.22
300
301.797
299.996
300.052
299.998
299.885
299.848
299.951
300.027
299.896
300
299.966
300.059
299.779
299.892
299.951
299.836
300.039
299.821
300.029
300.021
300.078
299.859
299.924
299.962
300
299.834
300
299.928
301.196
299.819
299.823
299.923
300
300
299.78
299.872
300
299.771
300.425
299.856
300
300.595
300
299.897
300
300
299.934
299.939
300
299.916
299.911
300
299.923
300
250
299.937
299.944
300.157
300
299.967
300.058
299.997
299.913
299.84
299.811
299.923
299.862
299.945
299.785
299.785
300.026
299.953
299.927
299.894
300
300
300.376
299.918
300
299.939
300
299.852
299.763
300
300.152
299.984
299.908
300.247
300.08
299.814
250
300
299.925
303.139
299.955
300.086
301.069
299.829
301.393
301.45
301.179
299.903
299.931
300.11
299.949
300
300.094
299.878
299.89
300.166
299.827
300.482
299.864
299.99
301.092
299.877
300.094
299.886
303.555
300
300
304.262
300.07
300
299.946
300.044
300.23
300
300.563
299.969
299.806
299.862
300.021
300
301.181
300
300.367
299.915
300
299.758
299.801
299.876
300.048
299.463
300.094
300.044
299.985
300.124
300.159
299.991
299.931
300.114
299.809
300
299.886
299.989
299.916
300.227
299.587
300.141
300.203
299.973
299.872
299.998
299.869
299.936
299.912
300.276
299.933
302.315
299.977
299.774
300
300
299.391
300
299.944
300.063
301.313
299.803
300.148
301.902
299.994
299.861
299.974
299.935
299.978
299.938
300.023
299.999
299.769
299.788
299.896
299.98
302.335
300.391
299.946
299.932
300.431
299.845
299.945
299.965
299.938
299.868
300.01
299.891
250
299.914
300
299.942
300.222
300
301.339
299.972
299.75
299.939
300.134
299.543
299.764
299.896
299.932
299.829
299.881
299.994
299.989
299.594
299.936
300.99
300
300.185
299.962
300.125
300.086
299.86
299.897
299.8
300.207
299.81
299.971
299.964
299.973
299.948
300.028
300.125
299.889
300.185
299.748
299.884
300.064
299.933
299.972
299.832
299.785
299.79
299.821
299.913
299.905
299.862
299.99
299.866
299.957
299.664
300
299.868
300
300.035
299.939
299.841
300
299.987
299.996
299.987
300.285
299.88
300.336
300.253
300
300.3
299.993
300.29
300
300
300
299.885
300.002
300
299.784
299.922
299.762
299.958
300.001
299.686
299.93
299.833
299.887
299.999
299.717
299.699
299.976
301.059
299.974
299.849
300.637
300.006
299.887
299.885
299.906
300
300.146
300.152
299.806
300.189
299.972
299.927
299.937
299.755
299.863
299.917
299.893
299.875
299.937
299.907
299.851
300.035
299.982
300.128
299.778
300.005
300.264
300.178
300.111
302.908
299.741
299.995
300.133
300.043
299.9
300.156
299.992
300.008
300.032
299.893
304.302
299.767
299.801
300
299.808
299.895
300
299.822
300
299.93
300.497
300.068
300
299.917
300
299.81
299.946
299.945
299.937
299.944
299.807
300.006
299.982
299.935
299.939
299.922
299.965
299.783
299.967
299.918
299.824
299.58
299.898
299.972
299.814
299.94
300
299.852
300.118
299.874
299.835
300.101
299.989
299.9
300.142
299.741
300.491
299.921
299.784
299.947
299.758
300.017
299.632
299.784
299.913
300.009
299.909
300.024
300.23
299.942
300.018
299.846
299.879
299.901
299.849
300.217
299.922
299.72
299.885
299.903
299.895
299.889
299.987
300.068
300.019
300
299.81
299.966
299.887
300
299.516
299.941
300.045
299.762
299.8
299.853
300.233
300.19
300.111
300.019
299.981
300.102
299.903
300.221
300.003
299.978
300.027
300.061
299.971
300.613
303.112
299.72
300
300.261
299.793
300
300
299.818
300
299.856
299.942
304.153
300.325
300.108
299.977
300.292
299.835
299.969
300
299.775
300
299.857
300.424
299.804
299.924
301.071
299.956
299.813
299.938
299.869
300.133
299.867
299.867
299.865
299.942
299.882
300
299.863
300.019
299.919
300
299.868
299.938
299.85
299.891
299.812
299.706
300.299
299.935
302.949
301.012
300
300
299.876
300.051
300.492
300
300.004
301.046
300.321
299.995
301.819
300.311
300.064
299.972
299.892
299.894
299.863
300.181
299.882
300.035
300.266
300.304
300
299.964
301.478
250
299.889
300.143
301.531
299.919
299.909
299.815
299.862
301.429
300.114
299.819
299.873
299.972
299.961
299.913
299.949
300.026
299.974
299.916
299.899
299.893
299.904
299.873
301.495
302.999
300
299.976
300
300.133
299.894
299.993
299.977
299.673
299.894
299.966
300.021
300.008
299.962
299.972
299.924
300.586
299.999
299.885
299.819
299.931
300.274
300
299.978
299.933
299.927
300.199
299.936
300.069
299.956
299.955
299.953
297.874
300.168
299.706
299.985
299.975
299.954
299.798
299.708
299.854
300.105
300.23
300.092
299.971
300.001
300.056
300.093
299.876
299.927
299.798
300.055
300.022
300.112
299.762
297.752
299.676
299.889
299.946
299.874
300.263
299.881
299.927
299.899
299.785
300.101
300.12
299.883
299.904
300.62
300.068
299.851
299.858
299.95
300.158
299.877
300.03
299.836
300.177
299.866
300.006
299.911
300.064
300.11
300.159
302.155
287.201
299.96
300.132
300.057
300.162
300.102
299.819
299.88
299.831
300.043
299.903
300.02
300.034
300.126
299.874
302.87
299.956
300.018
300.022
299.833
299.976
299.947
301.431
300.58
300.168
300.013
299.877
300.553
299.675
299.714
300.457
300.357
300.04
300.007
299.924
299.901
299.818
300.107
299.938
300
299.947
299.686
300
300.187
299.959
299.986
300.137
300.719
300.454
299.734
299.766
300.02
299.938
299.838
300.027
299.942
300.027
302.441
299.896
300.042
299.916
299.841
299.958
300.236
299.851
250
299.911
301.553
301.715
300.162
300.018
299.734
300.159
300.001
299.938
300.105
300.154
300.022
299.885
300.07
299.983
299.876
299.957
299.9
299.773
299.98
299.941
299.921
299.924
299.862
299.937
299.887
299.741
299.84
299.965
303.682
299.834
299.785
299.919
299.987
301.089
299.953
300.025
300
299.776
299.756
299.977
299.865
300.025
299.78
299.881
300.148
300.01
299.921
301.569
299.86
301.744
299.926
299.993
300.034
300.005
299.966
299.717
299.914
300
303.029
300
300
300
300
300
300
299.878
299.805
300
300.876
300.936
300
300
299.935
299.876
299.847
303.819
299.866
299.925
299.927
300
300
300.942
300.886
300
299.916
299.939
299.926
300
300
300
299.914
301.571
299.999
300
300
299.998
300
299.914
299.966
301.336
300
299.969
299.925
300
300
299.901
299.844
299.855
300.997
299.87
300
299.992
299.814
299.988
300
299.996
300
300
300
300
299.999
300.563
300
299.877
299.999
299.835
300
300
300
299.996
300.799
299.949
299.779
299.973
300
300
301.245
299.76
299.926
299.944
300
300
300
299.983
300
300
300
300
299.988
299.999
300
300
299.972
300
300
300
300
300
300.212
300
300
300
300
299.774
300
299.995
300
299.949
299.988
300
300.047
299.967
300
299.928
300.33
299.997
299.985
299.94
300.166
300.027
299.734
300.203
300
300.241
299.875
299.851
300
299.974
299.986
300
299.997
299.946
300
300
299.987
300
300
300
300
300
300
300.315
300.298
300
299.834
300.189
300
299.829
300
299.883
300
300
300
300
300
300
300
300
299.992
300
300.123
300
299.858
299.999
299.93
300
300
299.986
300
299.997
300
299.936
299.959
299.909
299.787
299.958
300
299.891
300.107
300
300
300
300
300
300
300.17
300
299.958
299.936
300
300
300
300
300
300
299.855
299.984
300
300
300
300
299.943
300
300
299.863
299.977
299.879
300.64
299.761
300.103
299.943
299.945
299.971
300
300.014
299.931
299.919
299.97
303.946
299.96
299.886
299.969
302.083
300.268
299.941
300.019
300
299.748
299.936
300.058
300.022
300.062
299.954
299.897
300.024
300.143
302.227
300.855
299.694
300
299.872
250
300.009
299.815
299.931
299.884
300
299.734
300
300.001
300
299.777
299.81
300.128
299.999
299.799
299.914
299.763
302.217
300.673
299.891
299.997
299.707
300.053
299.87
299.672
300.096
299.807
299.676
299.972
299.883
299.837
299.879
300.25
299.925
299.967
299.884
299.958
300.236
300
300
300
300.034
299.936
299.924
300
300
300.375
301.359
299.918
299.928
299.96
299.701
299.737
299.989
299.969
299.999
299.878
299.96
300.017
299.938
299.873
301.539
578.049
299.982
299.957
299.925
299.856
299.985
299.847
299.924
299.781
299.911
300.073
299.888
299.908
299.92
300.433
300
299.93
299.869
299.907
299.967
299.982
300.053
299.939
299.78
301.1
299.901
300.132
300.135
299.906
299.739
299.785
299.799
299.813
299.888
300
299.98
299.777
299.868
299.86
300.021
299.764
299.921
299.974
299.986
299.976
299.973
299.868
299.885
299.822
299.775
299.935
299.944
299.827
299.736
299.723
299.978
300.028
300
299.901
299.996
299.763
299.959
299.955
300
300.038
299.954
300.011
299.725
299.781
300.123
299.947
299.897
300.071
300.522
299.864
301.804
300
300
299.868
302.782
299.939
299.9
299.896
299.869
300.017
299.9
299.835
299.816
300
299.773
299.94
299.999
302.678
299.93
300.041
299.796
299.875
299.848
299.911
300.136
300.027
299.796
299.985
299.778
299.853
300
299.764
299.845
300.004
299.927
299.974
299.999
299.959
300.033
299.933
299.877
299.908
299.521
299.998
300.406
299.951
299.898
300.007
299.871
300.327
302.667
300.15
300
299.98
300.096
300
299.782
300.471
299.961
299.956
300
300.085
299.788
299.881
299.856
299.931
299.901
299.888
299.906
299.946
300.041
299.879
299.995
300.254
300.132
299.773
299.392
299.928
300.079
299.991
301.409
299.976
299.839
299.678
300
300.257
299.802
300.024
299.898
299.842
300
299.758
300
300
299.597
299.895
299.901
299.745
300
300
300
299.873
299.912
299.898
300.006
300.171
299.725
299.91
301.086
300
299.978
300.208
300
300.044
299.861
303.158
300
300
299.822
299.819
299.662
304.197
299.999
299.756
299.927
299.911
299.961
301.025
299.994
299.866
300.032
299.853
299.843
299.935
302.189
299.917
300.566
299.796
299.875
299.565
299.898
299.947
300
299.865
299.852
299.774
299.636
299.696
299.793
299.985
300
299.829
300.073
299.921
299.969
299.961
299.956
299.823
299.764
299.927
299.825
299.966
300.152
301.636
299.929
301.621
302.241
299.918
299.894
299.928
300.005
300.281
299.948
300.368
301.599
299.961
300.848
300
299.721
300.007
299.83
300.121
299.897
299.853
299.945
300.145
299.896
299.892
300.28
300
299.996
300.102
299.959
299.84
300
299.925
300
300
299.681
299.745
299.975
300
299.762
299.682
300.781
300
299.848
300.057
300
300.216
300.058
299.759
300.033
301.189
300.509
300.096
299.883
299.951
299.867
300.023
299.509
299.799
299.755
299.9
299.868
300.632
300.077
299.857
300.276
299.832
302.52
299.877
299.952
299.813
299.788
299.847
300.114
300.021
299.919
299.898
299.95
299.728
303.4
299.866
299.886
299.995
301.636
299.86
300.019
300.792
304.031
300.108
301.926
300.239
300.155
299.823
299.868
299.789
300.955
301.983
299.892
299.929
299.737
299.894
299.914
299.968
300.025
301.221
300
299.946
300.036
299.964
299.959
300.078
299.885
303.905
301.792
300.068
300.596
299.969
299.916
300.004
300.081
300.001
299.96
299.82
300.195
300.364
299.836
299.969
300.06
300.515
300.061
300.636
300.127
299.907
300.931
299.824
300.1
299.875
299.887
299.809
299.811
300.913
299.826
300.181
299.827
299.934
299.781
299.925
299.891
299.924
300.192
300.112
300.193
300.179
300
300.391
301.591
300.052
299.941
300.389
300.093
300.332
300.296
299.861
299.773
299.945
300.068
300.012
300.087
300.106
299.812
299.803
299.884
299.916
299.885
299.974
299.948
299.878
299.891
299.845
299.884
299.935
299.752
299.89
299.812
300.014
299.851
299.995
299.956
299.718
299.929
302.517
299.791
299.931
300.134
300.019
299.943
301.059
303.034
299.76
299.818
300.275
299.936
300.469
300.284
300.842
300.091
300.071
299.919
301.194
300.07
300.137
299.957
301.048
301.716
300.083
302.372
301.291
300
299.834
299.811
300.035
300.187
300.286
299.63
299.881
299.953
300.354
301.006
300.296
299.974
300.023
299.781
299.614
300.707
299.884
301.148
300.248
299.942
300.022
299.667
300.225
300.715
300.745
299.896
300.016
300.123
299.696
301.174
299.795
299.681
299.628
300.774
299.994
299.981
299.876
299.833
300.084
299.951
299.83
299.831
299.679
300.755
300.81
300.551
300
300.327
300.224
300.247
301.211
302.601
299.97
299.85
300.015
301.538
300
300.321
299.9
300.02
300.064
299.734
299.963
299.734
299.82
261.202
299.741
300.386
299.962
299.861
300.108
300.045
299.909
299.909
300.033
300.552
300.553
299.927
299.96
300.159
300.736
299.847
300.56
300.002
299.937
300.012
299.891
299.958
300.069
300.054
300.019
300.042
299.905
301.481
300
299.944
302.058
299.793
300.558
299.982
299.848
302.068
299.949
300.116
302.502
300.21
300.553
299.958
299.972
300.812
301.524
299.784
300
300.141
299.97
299.953
299.97
300.375
299.977
299.746
300.181
299.944
300.05
300.05
299.914
300.189
300.096
299.69
299.873
300.1
299.851
301.998
299.969
299.702
299.919
299.714
299.837
299.938
299.942
299.854
300
301.367
299.865
299.675
299.741
299.824
300.964
299.946
299.601
299.907
299.918
299.959
299.946
303.097
299.99
299.766
301.783
299.799
299.571
300.155
300.038
299.926
299.964
301.476
300
299.923
299.987
300.121
299.921
299.762
299.939
299.925
300.069
299.951
300.397
300.036
299.93
300.609
299.887
302.636
299.958
299.908
299.932
299.763
302.809
301.064
300.266
301.228
300.209
301.915
300.007
300.692
301.542
300.024
299.921
299.849
299.765
300.1
300.149
302.116
303.529
299.993
299.908
299.76
300.001
300.908
299.864
299.889
299.813
300.285
300
299.882
301.708
300.331
301.794
300.075
299.904
299.738
300.255
300.294
299.85
299.992
300.021
300.289
299.927
300.131
299.797
299.884
299.793
299.889
299.892
299.958
299.742
300.039
300.345
300.436
300.504
299.937
301.935
299.789
299.879
300.531
299.713
299.857
300.116
299.857
299.991
299.76
300.606
299.915
299.793
299.975
299.932
300.692
299.935
300.135
299.847
300.202
299.981
299.923
299.88
300.019
299.888
299.975
300.239
299.87
300.313
299.796
299.905
299.933
302.218
299.911
300.013
300.691
300.1
300.122
299.99
299.823
299.906
299.703
300.062
300.538
299.786
299.907
299.996
299.908
299.935
300.497
299.905
300.04
299.929
300.021
299.896
299.983
299.866
299.991
300.212
299.846
299.955
299.943
299.913
299.946
300.008
299.931
300.416
299.887
299.939
299.952
299.836
299.92
299.78
299.906
299.998
299.929
299.831
299.967
299.917
300.021
299.986
299.421
300.024
299.996
299.977
300.031
299.682
299.721
299.866
299.689
299.874
299.71
299.753
299.778
299.922
300
299.954
302.191
299.925
299.865
299.953
299.829
299.752
299.926
299.703
299.983
299.838
299.931
299.906
299.95
299.924
299.728
299.852
299.841
299.762
299.995
299.783
300.017
300.03
299.712
300.481
299.923
299.841
299.894
299.925
300.171
300.076
300.455
299.944
300
300.239
299.893
299.899
300.164
300.254
299.974
299.848
300.13
299.91
299.93
300.409
299.855
300.22
299.997
299.81
300.097
299.84
300.602
299.936
300.297
299.878
299.866
299.909
299.833
300.021
300.122
300.085
300.15
300.009
300.024
300.045
299.688
301.831
300.344
302.586
300.164
300.029
300.158
299.824
299.877
300.167
299.935
300.063
299.888
250
300.021
299.855
300.439
299.935
299.876
299.683
299.825
299.98
300.1
299.867
299.697
300.051
299.822
300.304
299.867
300
299.803
299.888
299.834
300.229
300.162
300.282
300.108
300.038
299.953
299.915
300.061
300.943
299.675
300.055
299.914
299.773
300.006
299.989
299.956
299.874
299.989
299.929
300
299.762
300
299.917
300.087
299.752
299.944
299.763
299.868
299.824
299.913
299.961
299.719
300.1
300.186
299.851
299.974
300.246
299.531
299.998
299.892
300.027
300.032
300
299.997
300.65
299.844
299.833
299.999
299.992
299.841
299.899
300.003
299.897
299.815
299.685
300.189
299.736
299.83
300.023
299.646
299.884
301.149
299.766
300.243
299.957
299.989
300.212
299.766
300.173
299.975
300
300.103
300.069
300.142
300.155
300
299.985
299.904
300.088
299.852
299.843
300
299.855
299.963
299.959
300.165
300.011
299.709
299.915
299.903
299.958
299.915
300.187
299.88
300.03
299.848
300
299.895
299.995
299.693
300.127
299.946
299.756
300.15
299.961
299.868
300.031
300.036
300.147
299.766
299.701
302.417
299.833
299.944
299.864
300.156
299.718
299.818
299.844
300.279
299.69
299.969
299.819
300.078
300.066
299.863
299.875
300.052
299.995
299.512
300.623
300.188
300.068
299.937
300.099
300.255
300.037
299.73
300
300.06
300.126
299.773
299.797
299.793
299.757
300.032
300.378
299.889
299.932
300.177
301.949
300.179
299.78
300.046
300.089
299.883
300
300
299.897
299.917
300
299.792
299.896
300.006
300
299.943
300
300.08
300
299.998
300.005
300.302
300
299.897
299.848
300
299.789
300
300
300
300
300
300
299.88
299.763
299.896
299.861
299.814
299.953
299.81
299.913
299.799
299.917
299.922
299.693
299.864
299.86
299.749
299.854
300.186
299.985
300.015
299.89
299.824
299.941
299.829
299.869
299.926
299.761
299.745
300.039
299.988
299.988
299.863
300.168
299.757
299.876
299.939
299.908
299.86
299.898
299.869
299.949
299.766
299.993
299.892
300.351
299.95
300.016
300.005
299.706
300.09
300
299.971
300.012
299.914
299.84
300.019
299.941
300
300.103
299.9
299.963
299.915
300
300
299.988
300.012
300.11
299.925
300
300
299.817
299.945
300
300
300
299.743
299.918
300
300
300
300
300
300
300
299.753
299.943
300
299.998
300
300.13
300
300.101
300
299.712
300
300
299.995
299.895
300
299.995
299.999
300
300
299.925
300.2
300
300
299.933
299.84
300
300
300
300
299.769
299.927
300
299.983
299.948
299.8
299.999
300
299.799
300.015
299.715
300
299.844
300
300
299.909
300.05
300.072
300.067
299.944
300
300
299.827
300
300
300
299.807
299.949
300
300
300
300
300
300
300
299.891
299.874
300
299.931
300
300.007
299.89
300.015
300
300
299.82
300
300
299.821
299.941
300
300.024
300
299.755
299.965
300
299.837
299.928
299.94
299.935
299.787
300
300
299.672
299.999
300
300
299.987
300
300.002
299.995
300
300
299.718
299.871
299.919
299.755
299.934
300.012
300.09
299.919
299.686
300.025
299.901
299.959
299.934
299.846
299.996
300
299.944
300.078
299.885
300.07
300
299.947