/*--------------------------------*- C++ -*----------------------------------*\
| =========                 |                                                 |
| \\      /  F ield         | OpenFOAM: The Open Source CFD Toolbox           |
|  \\    /   O peration     | Version:  2312                                  |
|   \\  /    A nd           | Website:  www.openfoam.com                      |
|    \\/     M anipulation  |                                                 |
\*---------------------------------------------------------------------------*/
FoamFile
{
    version     2.0;
    format      ascii;
    arch        "LSB;label=32;scalar=64";
    class       volScalarField;
    location    "0.25";
    object      epsilon;
}
// * * * * * * * * * * * * * * * * * * * * * * * * * * * * * * * * * * * * * //

dimensions      [0 2 -3 0 0 0 0];

internalField   nonuniform List<scalar> 
32842
(
0.113577
0.113957
0.113508
0.113508
0.126119
0.113508
14309.3
3368.29
0.113508
0.113508
887.026
80.2713
0.113507
0.113508
0.113532
0.113552
0.113508
0.113508
0.113489
0.125746
0.127548
0.126711
0.125366
0.113508
0.12492
0.113508
0.113508
0.121593
0.951935
0.113487
410.879
0.170429
164.8
0.113459
442.603
6653.49
0.125371
0.113461
0.113409
0.113419
0.113508
0.12734
0.113508
0.113508
0.220886
0.113501
1528.42
0.113555
0.126824
0.706978
695.224
0.113508
0.14048
0.596428
0.113508
0.168439
0.113508
0.57346
0.113508
0.113508
3304.91
0.145386
0.130298
0.127371
0.113492
7.59019
0.113508
0.121787
0.185528
0.113946
0.121044
5.03997
0.163431
0.113508
0.113508
0.113367
0.0124148
0.113508
0.164584
2966.7
0.125961
0.113508
0.113508
0.149232
0.10924
0.113508
0.113508
0.213955
0.192627
0.113508
0.126122
0.126809
114.286
0.113522
0.113508
0.11343
0.168745
0.113541
0.115781
0.113508
0.113508
0.128938
0.114247
136.919
0.164895
0.179149
44.1952
0.114406
0.151025
0.113767
0.113508
0.113508
4.59764
0.113508
0.114352
0.127019
0.152231
65.0917
0.114172
0.113507
0.113508
0.113508
0.156216
0.113508
0.112375
0.166442
0.200777
0.113427
269.611
0.113508
0.113508
0.115587
0.136704
0.157551
0.134092
0.113559
0.115194
0.296112
0.113483
0.113466
0.154011
0.113483
0.15591
0.0993943
0.113498
0.113499
3201.58
0.113494
0.113508
0.113508
0.115445
0.410544
0.123621
1448.35
0.113541
0.113508
0.113508
0.113478
0.113404
0.113508
0.11345
0.113508
0.125044
0.113508
0.113566
0.113478
0.113508
0.113506
0.113589
459.438
0.157922
0.130924
60.701
0.113508
0.127748
134.049
0.113505
0.114374
0.113508
0.113508
0.120129
0.113508
0.113508
0.113508
0.15141
0.113508
0.161348
0.113508
0.113405
0.113508
0.113508
0.309941
0.188602
0.113508
0.182074
0.113383
0.113468
0.113392
0.168882
0.113508
0.113416
0.113424
0.63826
60.269
1.71813
0.159227
0.113398
0.127531
0.178457
0.113383
0.113567
0.114299
135.069
105.907
0.113508
0.113508
0.113349
0.113302
0.113558
0.113562
0.171005
0.113508
0.113508
0.113505
0.130635
0.210807
0.113508
0.17578
0.113505
1168.65
0.113508
0.113508
0.113362
0.113508
754.284
0.125907
0.12632
0.105875
0.113277
0.145415
0.396361
0.113508
0.113449
31.4642
0.113496
0.113403
0.137075
0.113508
0.113508
0.113508
0.113508
0.113508
0.113537
0.169777
0.113349
0.113508
0.113508
69.247
0.113508
0.113493
0.113508
0.113508
0.113508
0.113508
0.21857
0.113508
0.113508
0.113507
0.113442
0.113508
0.113508
0.1705
0.113508
0.213013
0.113508
7.32207
0.113436
0.127827
0.113508
0.113411
0.113508
143.547
248.084
0.113508
0.113525
0.210462
38.4998
0.113508
0.127466
0.113508
7849.51
0.113508
0.185942
288.065
0.0378732
0.113306
0.186987
0.113508
0.113382
0.124826
655.622
0.113508
0.113508
0.113508
0.113508
0.113508
0.113508
0.113508
0.113473
0.143335
0.113508
0.113508
0.146835
0.113508
0.113508
0.113508
0.113337
750.405
0.113508
0.113482
0.113387
0.304833
0.113508
0.118031
0.113508
0.113508
0.113409
0.113508
0.113582
0.113508
0.113546
0.163582
0.113508
0.113508
0.113507
0.113508
0.0887616
0.185423
0.113508
0.113508
0.113504
0.113532
0.116935
0.113508
0.143652
0.113508
0.113508
0.17499
0.125415
0.156273
0.113612
47.9545
0.113447
0.169256
0.113508
0.113505
0.125168
0.113379
0.113508
0.113404
0.113508
0.113508
0.113362
0.631472
0.113508
0.113518
0.113508
0.113508
0.0830807
0.124438
0.113508
15607.8
0.113507
0.131449
0.113508
0.150681
0.12733
0.113508
0.115361
0.125146
0.113444
0.141474
0.167916
0.113442
0.113265
0.113508
0.113508
0.113508
0.113508
0.113507
0.113508
0.113486
0.113508
0.113508
0.113471
0.113508
0.113511
0.113455
0.113391
0.113572
2135.35
0.113508
0.11355
0.113865
430.083
0.113533
0.113417
0.132666
0.113508
0.12525
0.196235
0.113508
0.113508
0.113475
0.113508
0.113497
0.113565
0.113519
0.113419
120497
0.113447
0.16236
0.113508
0.12762
10262
0.113508
0.1135
0.113508
0.112157
0.113508
0.113413
0.113508
0.113508
0.162487
0.125827
0.085081
0.113563
11943.9
8.14227
0.15353
0.127411
0.75445
0.125887
0.151051
0.113508
0.113555
0.11936
0.113508
0.124046
0.120685
0.113508
0.113291
0.113537
60.6642
0.123346
0.113415
0.11348
0.126494
0.113416
0.113654
0.113523
0.128225
0.113508
0.113508
0.113508
0.113605
0.113504
0.149655
0.113505
0.113836
0.113508
0.128418
0.126202
0.113508
0.113559
0.149066
0.159474
0.113508
0.113508
0.113508
0.113508
0.126008
0.113544
0.568198
0.149361
0.113508
0.113508
0.117663
0.113744
0.113508
0.126078
0.114302
0.119696
0.11419
0.154975
0.127651
0.192445
0.147935
0.117358
0.113462
0.126871
120.237
0.113575
0.157973
0.126329
0.116208
0.123454
0.113508
68.3535
0.127345
0.113507
0.163417
0.113449
0.163603
0.113504
0.113508
0.12715
0.13201
56.0597
4474.82
0.523589
45.0262
73.3204
22.4361
77.7871
0.153896
0.113567
0.113508
0.113589
0.14984
0.201555
0.129646
0.169184
0.113498
0.113508
0.123588
0.456894
0.113508
19736.4
0.805163
0.113437
3910.16
0.108001
7.10071
0.113508
0.113508
0.113367
0.15586
843.091
0.113508
0.128549
0.113458
0.058127
0.185514
0.113481
0.113566
0.113508
0.113508
0.476011
0.267602
0.113508
0.113508
0.113525
0.166405
0.601214
0.120437
0.113538
0.113508
0.113508
196.209
0.148131
0.193832
2.61005
0.188524
0.113508
0.415175
0.187822
0.11351
121.623
0.113508
0.126088
0.113508
0.114263
0.12634
0.125166
0.113508
0.113499
0.113444
0.113445
0.148384
0.127835
0.113508
0.113407
132.471
0.113508
0.142552
43.743
0.126824
0.113533
0.113508
17.5073
18.3686
531.032
0.113406
7.99385
0.104541
0.793816
0.115041
0.244297
0.113508
0.113508
0.113508
0.113508
0.113508
0.354563
0.126459
0.113506
0.113508
0.113497
0.113508
0.113333
0.113508
0.113407
0.364016
0.121122
0.113444
0.113508
0.251635
0.390081
1.09422
0.113375
0.125817
0.113508
0.113508
0.113403
46.2114
0.164696
0.113508
0.125638
0.113508
0.00529452
0.113508
0.113508
0.113508
0.113508
0.140315
0.113508
0.113508
0.801541
0.247459
0.113187
0.113508
0.113508
0.186615
0.107923
0.113508
0.160958
0.125733
0.113508
0.113508
880.343
160.329
0.113508
0.117319
1216.64
0.113513
0.0667754
0.113498
0.113508
0.126922
0.127014
0.115478
0.113592
1099.1
0.113508
0.37914
0.113508
0.113508
12.8571
250.773
0.31532
0.0677817
0.113508
0.113508
0.124321
0.125446
271.283
4784.75
67.2163
324.9
0.113761
0.113949
43.2151
0.113508
0.283414
0.113283
0.113408
0.136298
6164.44
0.113514
0.113406
0.113508
0.113508
0.113376
0.113508
0.113496
0.113508
0.113508
0.144165
0.113508
0.113422
0.113508
0.0931919
0.113508
0.113338
0.113557
0.181248
0.113508
0.113496
0.113326
0.113508
0.113374
0.113508
0.115738
0.11338
0.113504
0.113449
0.113525
0.0979359
0.113532
0.126794
0.118881
0.128163
0.113508
0.127299
0.133453
0.191542
0.113491
0.113513
0.124373
0.219506
0.113508
0.2079
0.125279
0.113508
0.113508
0.115853
0.113379
0.11337
0.139445
0.113508
0.113508
0.113472
0.127461
0.163032
0.113523
0.125688
0.113508
0.124161
2502.75
743.911
0.124578
0.113375
0.126356
0.113508
0.113508
0.113507
0.113521
0.113495
0.113381
0.207699
0.113508
0.115228
0.139395
0.126005
0.113495
0.113838
0.113508
0.126028
0.130782
0.154712
0.113453
0.190703
0.20605
0.126301
0.113508
0.123551
0.113409
0.128412
0.113473
0.113508
0.127112
1052.28
0.166638
0.113361
11.8089
0.113521
0.19706
0.11355
0.113508
0.113508
0.113508
0.113376
0.113405
0.113372
0.113508
0.113508
0.113417
0.113396
0.113524
0.171052
0.113754
0.163429
0.113519
0.113541
0.126205
1.99079
0.113539
0.113425
0.127296
0.113508
0.113857
0.113508
0.130212
0.13007
0.113508
0.113508
0.113512
0.113519
0.113508
0.113677
0.113508
0.113508
4704.09
0.113507
10.9353
0.11346
0.1135
0.113639
0.113843
0.124481
0.113448
0.113508
0.113508
0.113508
0.414085
0.113508
0.113533
0.156751
0.113534
0.166482
0.113508
26.512
0.113381
0.113426
0.125497
230.9
0.113511
0.113432
101.912
0.126933
0.113507
0.113429
0.113508
0.113495
0.113484
0.168132
6.50541
0.160479
0.113508
0.15183
0.113508
0.11336
0.113397
0.127477
0.119091
0.113508
0.113527
0.113508
0.113465
0.11415
0.113508
0.113351
0.113394
0.113531
0.222741
0.126736
0.113508
0.336077
0.581601
0.113505
0.102698
0.0825832
0.113508
0.113508
0.113495
0.211298
0.113508
0.113508
0.172846
0.126767
0.113508
0.113508
0.113508
0.113482
0.118962
0.517309
0.113508
0.113506
0.196677
0.113507
0.113502
27.7033
0.113439
0.113508
0.113508
0.113508
0.170606
0.113396
0.113531
0.113508
0.113507
0.128909
0.113508
0.196892
0.126145
93.8576
0.113508
0.113508
0.113507
0.113399
0.113504
0.113508
0.0630017
6.2191
0.12312
0.199965
0.113508
0.124558
0.113508
0.113508
0.113418
0.113508
0.113486
0.113508
0.113508
0.113507
0.113531
0.113508
3362.42
0.113542
0.12236
0.113486
0.145051
0.149869
0.113508
0.125063
0.146675
60.0258
63.9055
0.260907
0.113512
0.113508
0.113508
0.113508
0.649946
0.113508
0.220519
0.353608
0.385592
0.317236
0.119129
31.0623
0.113508
0.477013
5967.4
0.113508
1024.21
0.117395
0.113489
0.113508
0.113508
0.694826
0.113406
0.157696
0.126571
259.997
0.218756
0.141005
0.131185
0.113508
0.113485
0.113413
0.113359
0.113517
0.113508
0.113507
0.11354
1.06482
0.12938
0.113442
258.353
0.113492
0.113471
0.113505
0.113467
749.157
0.190643
0.113441
0.113444
0.113498
0.160242
0.320443
0.113434
0.0153135
0.14756
2.02822
0.113549
0.113551
4403.14
0.142964
0.113286
0.113506
0.113508
0.113552
17.9045
0.113493
0.207909
0.113362
0.113508
0.113506
0.113478
0.116394
1.03253
0.113452
0.113531
208.293
0.333431
0.176551
0.113395
30.6338
2170.67
0.113505
0.113508
0.113388
0.124483
13.9932
0.113508
0.122203
0.245495
0.113467
0.120018
0.206866
0.11346
0.113508
0.113507
0.113508
63.6272
0.113425
0.113439
0.0805044
6.2193
0.120272
0.118071
0.0972996
0.113522
370.893
0.218932
0.113515
0.129694
0.284055
10.3571
0.119002
11.9778
7.82713
0.113406
996.102
0.174462
0.096651
0.113529
0.113235
0.113506
0.113478
0.113366
0.113524
0.113393
206.316
0.113508
0.113508
0.220883
0.113508
0.113529
1932.67
0.351644
0.129745
0.119314
0.113528
0.32754
168.331
0.172227
0.113551
0.113598
0.113566
0.574914
689.636
0.128481
0.116755
317.795
0.113478
0.287344
0.114147
0.1135
1.20608
0.13014
0.113573
0.471173
0.113525
0.113388
0.302934
564.741
141.438
0.113406
0.113501
0.113508
0.113396
0.114677
0.115881
0.346424
0.113508
0.113508
41.9566
0.113564
0.113465
0.363947
0.113508
15.4166
36.2125
0.113508
0.113532
23.9389
3.09081
15.9453
8.43106
0.113542
122.348
29.3301
0.133376
227.231
0.116358
0.135082
0.113315
0.113507
0.113828
0.386431
0.132885
0.113529
0.581808
0.179058
1.93956
1.89443
0.113508
0.829471
1.06236
0.0938928
0.113508
0.113507
0.31261
0.113573
0.113572
0.215035
0.115863
102.167
1.17143
0.140633
0.118194
0.113462
0.113425
5.75531
0.397636
0.113508
0.11392
0.113508
0.404832
0.113461
0.338644
198.807
0.114129
0.219952
65.465
0.148221
19.7682
71.5384
991.952
0.114319
0.148883
32.1377
0.0898368
0.122952
0.113508
20.1539
0.113493
0.114078
0.135598
0.101348
0.169453
0.0846079
0.127561
0.138878
5965.63
0.113486
32.2288
0.131044
0.137654
28.173
0.113465
0.0805384
0.128874
142.83
0.13174
0.113508
0.141828
0.113508
0.124584
72290
0.125323
0.113531
0.174245
0.406067
0.113407
200.033
0.113508
0.113504
0.113425
0.113468
0.785717
0.124645
0.113508
0.196818
0.227848
0.113527
0.113772
2.79339
0.113441
0.113508
0.113766
12.2874
5.69956
0.113339
70.5961
0.113508
207.932
0.185873
0.11635
0.168991
21.1055
0.302354
0.150281
0.113963
0.459659
0.0821872
639.498
1122.18
38.5752
0.12757
1.77886
0.113508
140.112
0.113525
0.175474
0.113359
1.38267
0.113514
0.127072
0.118738
4.12269
22.2463
0.126932
0.113532
353.451
0.185445
0.113376
0.113508
32.3481
0.417777
0.113508
0.133725
0.113517
0.13791
0.16644
0.133
0.113541
0.113483
3.87984
2136.65
0.125953
0.113689
0.128263
0.113449
0.113497
4.55079
0.113508
0.16235
0.185192
0.113679
0.144089
0.113508
355.831
4141.93
0.113508
0.136317
9.84453
0.113508
0.113508
0.113457
0.203798
0.113508
0.114408
0.113437
0.128824
0.114301
0.114792
0.113641
0.113508
0.113396
0.113541
0.113508
0.113301
0.11345
0.113391
0.113403
28.4959
0.113926
0.113495
1358.74
0.111622
0.113487
0.113488
0.11426
0.113508
0.128306
3.30853
0.113465
0.113637
0.11431
0.116296
0.239441
1421.91
0.133273
0.198328
159.957
0.113556
0.113436
191.416
189.224
0.126375
0.130137
0.113712
0.11349
2806.84
0.126561
747.015
0.125614
0.129816
0.123025
0.113436
491.329
0.113297
0.113508
0.129449
335.295
1343.29
0.216566
253.449
0.125391
0.12441
0.168313
0.113349
1003.29
29.1773
0.124916
402.149
0.113506
880.975
0.113447
0.118538
0.113417
0.98251
0.113508
105.839
0.113588
0.113553
0.12964
0.893385
0.125571
0.114886
0.113508
0.113497
11.3154
0.113564
0.113508
5663.01
0.113508
9.18795
0.113392
0.113557
0.113831
0.113475
0.113459
0.113508
12.9171
0.113381
0.502568
0.384348
0.113768
0.113544
0.113557
0.113394
0.113492
0.113373
95.9301
0.11337
0.113364
0.113508
0.128579
0.208208
0.113448
0.113453
0.113508
892.015
0.113508
0.113476
0.113518
0.113483
0.113392
0.14362
0.113384
0.113516
0.113491
1805.37
0.113735
0.113533
0.113248
0.145385
0.114071
0.114522
0.116795
0.113526
0.114523
0.11345
1.04911
0.113506
0.113454
0.111307
0.278657
15.8204
0.113557
172.796
141.631
197.241
0.113513
189.832
0.125058
0.124449
0.113526
49.0746
43.9646
0.113393
0.113508
0.113565
0.113477
5.33166
32.4824
0.113505
0.113508
0.112551
0.113504
0.11412
1349.89
0.113518
1401.55
360.121
0.113508
0.116311
0.312789
0.116352
0.109067
0.113508
0.113582
0.177717
0.113454
639.877
0.113387
0.114853
0.113533
0.135728
0.128615
0.113506
0.113508
0.113508
0.113508
0.114368
0.11331
5.4351
0.113507
0.119814
0.115542
0.136247
0.11343
0.0142451
0.1341
0.113452
26.7138
0.504619
0.131217
0.113547
0.113508
0.152481
0.391285
0.498259
0.268626
0.113504
0.113508
0.139319
0.113392
0.135835
0.113508
0.113337
0.127166
0.233662
0.113503
0.113508
303.088
0.113508
0.113386
0.113508
0.113508
18.2658
0.138442
50.4263
0.113508
0.113372
0.113405
335.513
0.116562
1561.13
1955.79
0.128364
0.113377
0.113487
0.113523
0.113508
988.13
1266.79
0.113508
0.113508
0.11338
0.113508
0.170457
0.113508
0.154149
0.113508
0.147381
0.126989
0.239335
0.113508
0.113508
0.113508
0.113664
0.113388
0.113524
0.113508
0.176153
0.113617
0.110664
2.96759
0.140574
0.113507
0.113457
0.113508
0.113508
0.114369
374.433
0.113508
0.113273
0.113435
0.142133
0.172919
615.085
101.725
160.652
0.15954
0.135929
1414.18
0.113147
0.181283
0.113481
0.113369
0.131719
0.478793
681.695
0.160376
0.113627
0.161721
4935.65
0.113508
0.113508
0.114117
0.113302
0.113451
0.113378
0.124975
3664.17
0.113508
40.4979
1539.85
0.113508
0.113508
0.113508
0.113472
0.113508
0.113508
0.113478
0.128136
3.12598
0.114045
0.120317
76.3931
0.114478
0.145777
0.152756
0.113521
0.126597
0.113173
0.115049
0.126702
0.128149
0.135647
0.12296
0.114129
52.6725
0.113508
0.113508
0.1191
0.113416
0.113385
0.113407
0.113508
27.1549
0.113508
0.113392
0.113517
0.113508
0.113448
0.113552
0.113494
0.114109
0.135384
0.113508
0.106692
0.113504
0.114469
0.113391
0.113508
25.2435
0.113923
0.113732
0.197199
0.114238
0.1134
0.11331
0.122734
0.203873
243.716
0.116108
0.113508
10.3695
0.113513
0.113454
0.113498
0.250433
0.113497
0.113374
0.113494
5.31073
0.124357
0.11351
0.126906
0.113479
0.133355
0.127315
0.113382
0.11666
0.113508
0.113507
0.113425
0.113508
0.113508
0.113539
0.128001
0.113508
0.113459
0.11599
0.132732
4.04569
0.113508
0.115002
0.12978
0.115473
0.76068
0.183166
0.955142
0.116736
0.114203
0.127864
0.113506
0.11593
0.113508
15.8147
0.203677
0.127353
0.166061
0.11459
0.113364
0.113508
0.105987
0.113508
0.113252
0.172117
0.124985
0.113475
0.113502
0.114839
0.113428
0.113436
0.113511
0.113508
0.113382
0.13587
0.113458
0.113508
0.113361
0.113362
0.113508
0.0427083
0.376659
0.128313
0.113429
0.125755
0.148727
0.113445
0.113508
0.113413
26.8567
0.167782
0.0783967
0.113456
781.849
0.113489
0.113408
0.326242
0.196673
0.113422
0.114014
0.113508
0.113524
0.113567
0.113363
0.113422
0.113423
0.093749
0.186729
0.118715
0.113525
0.11353
530.983
0.113529
85.9839
0.113508
0.125193
0.113295
0.113508
0.113508
0.16122
0.5598
0.113769
0.113608
0.113508
0.113508
0.0954881
0.113386
0.102554
0.12442
42.4212
0.186115
0.113508
100.73
0.113508
0.113432
0.113508
0.113508
0.113374
0.11335
0.140218
0.113503
0.143484
0.113508
0.11384
0.113509
1292.32
0.113378
0.113388
1888.3
0.143006
0.113508
0.113463
0.113487
0.113384
0.519269
0.113506
0.143269
0.113695
0.113381
0.314478
28.9915
0.113567
0.113989
0.113419
0.114388
0.113508
0.113508
343.003
0.113447
0.113508
0.131166
0.113508
0.113377
0.113276
0.113508
0.114038
0.148104
0.113506
0.11468
0.0205134
77.6145
1480.75
0.113508
0.113508
9.54302
0.113508
0.113714
1400.09
0.113271
1593.69
2857.07
2514.09
0.151533
0.113306
0.113457
0.113547
0.113508
0.113433
0.1695
0.11348
0.179166
0.113398
1.45191
0.216222
0.113534
2624.73
0.113473
0.113508
0.117737
28.2321
0.122967
0.113508
63.173
0.11352
0.113508
0.113508
0.113571
0.113499
0.113508
1048.72
0.163163
0.114397
0.113379
0.11449
0.113508
182.165
0.113508
21.2206
0.113508
0.113508
0.113543
0.125638
0.113398
9.90212
464.655
0.11354
0.113574
0.113508
14.9123
0.11352
0.113508
0.113546
32.1294
0.113408
0.113508
0.113508
0.11533
394.789
653.121
831.095
0.242174
262.893
0.113441
0.113667
0.114139
1.19639
0.113476
0.113555
6.58331
0.119411
0.309764
0.11342
0.113344
0.158814
0.173383
661.388
0.113508
0.113385
163.698
0.831191
0.190459
63.8188
0.539574
0.113508
0.113667
31.6166
0.113468
0.113508
0.125617
94.1105
0.10849
1166.26
0.153383
257.756
0.113491
0.346102
15.1444
0.113424
0.113295
87.3685
0.114124
0.113544
0.113508
0.113497
0.115639
0.143902
0.114191
464.23
0.113341
0.113508
0.113392
0.113282
0.122782
0.31791
0.113553
0.113408
0.113504
1.16099
639.255
0.113465
0.113543
0.112631
0.11353
0.116814
0.113508
0.113499
817.976
0.114701
177.344
0.113508
6.03982
0.113445
0.00195978
0.257537
22.7814
0.113507
0.115421
0.24454
0.113378
0.113508
0.113434
0.113498
0.114559
0.123764
0.743908
337.886
9.46925
120.143
0.125721
291.446
0.126027
0.129535
0.113507
0.113506
0.125882
0.113437
0.123985
0.113507
0.114257
0.113504
0.124916
0.113485
0.116539
0.128725
0.113508
0.113508
0.113548
0.113416
0.113482
0.113508
0.213947
0.113497
0.113371
15.2102
0.11339
195.65
355.832
0.163367
76.122
0.165848
327.519
0.150241
0.113508
0.113508
0.113434
0.184673
0.113508
2797.95
0.113554
0.113992
0.113508
0.113482
0.113462
0.113544
0.113457
0.113052
0.113491
0.142804
0.113403
0.113508
72.5647
0.114952
0.113431
2642.53
0.195678
0.113507
0.113491
0.113508
0.117545
272.557
132.417
359.856
197.602
0.113451
0.113508
0.113508
0.113702
0.113356
0.113508
0.124376
0.113508
0.113508
0.113508
0.114089
0.113489
0.113556
0.113523
0.113381
3.20387
3.69462
40.6019
0.434198
0.435304
0.113434
0.113502
165.804
0.112364
0.113508
97.9417
0.126429
0.11331
0.113479
0.138256
84.7386
1.1859
0.113461
0.113508
0.126081
213.806
0.113508
0.113304
0.113508
0.319762
0.518467
0.114308
0.131174
0.113507
0.113508
0.113508
0.113516
0.11352
0.11349
0.11343
0.113396
0.113496
0.113499
0.113491
0.113461
0.113507
0.117799
0.113507
0.45404
0.0335798
197.093
1.38696
0.164593
0.152869
0.16821
0.0580871
0.113508
0.113605
0.113502
0.0816219
0.3112
0.190331
0.115361
271.611
1164.48
0.285252
0.512828
0.125317
0.100597
0.115025
695.784
0.683017
2.29669
0.113388
0.113496
0.113505
0.11342
0.173558
0.0730986
0.188852
0.333613
0.114694
0.113527
0.113563
0.113382
0.0948634
0.121524
0.113672
0.113591
0.11689
0.0986424
0.113507
0.113491
0.113481
0.113398
0.113508
0.11342
0.16081
0.113508
0.113508
0.113504
20.4708
0.114359
0.116112
0.117012
0.113264
0.63333
0.113445
0.113506
0.113516
0.0952148
322.45
11.0403
0.113482
0.0303385
0.11348
0.11348
5.92112
0.0973231
3898.54
10.8535
0.124083
0.113508
1.96036
0.113508
0.113508
0.113508
0.11405
0.113508
2048.57
0.113397
0.188087
0.284086
0.113495
0.113478
0.136753
0.114455
0.142383
0.113508
0.171093
0.113508
0.114019
1.05168
0.113403
0.113547
690.843
0.113392
0.113384
0.113431
245.226
25.7291
0.113384
0.0354625
0.113384
0.113336
0.113446
0.113508
0.113365
0.113543
0.11351
0.113508
0.113275
0.113253
0.219806
0.113508
0.0979463
0.113732
0.147158
0.1272
0.249024
499.164
0.113508
0.113508
0.11346
4.36794
38.9594
0.113508
0.113512
29.6559
25.9787
0.115281
236.7
0.191693
0.11359
0.186755
0.182361
0.11466
0.113519
0.113385
0.114322
0.139564
0.112966
38.7224
0.113508
0.11348
3335.17
108.312
0.114073
21.2736
521.065
0.11357
0.113839
0.128526
0.113491
650.023
0.127172
0.124376
0.128417
0.113459
0.11353
3640.43
0.163368
0.113564
0.113506
0.1135
0.113472
0.113508
0.113508
0.173
4649.83
0.25399
0.113508
0.11355
0.113508
0.113428
0.114127
0.113409
0.113564
0.115055
0.261241
0.113434
0.200534
0.17583
0.113508
0.113618
0.11349
2146.74
0.113508
0.115702
0.144722
0.146405
0.113491
0.113508
0.113406
0.113468
0.114376
411.116
0.115196
0.113442
111.773
6.02009
0.113277
2196.97
0.113339
0.117411
0.115238
0.113422
0.091915
0.113333
0.113324
0.113307
0.11413
0.114289
0.114117
0.128709
0.114419
0.12984
0.114623
0.118294
0.114816
0.113331
0.114363
0.113739
0.131458
0.192564
41.1648
0.116456
0.115493
0.124464
0.11349
0.13079
0.129591
0.189842
0.127189
0.189097
0.113424
0.13414
0.09532
0.113508
4350.03
267.364
0.0445652
0.126989
0.125244
0.246791
0.113269
0.113442
0.115086
3.88057
0.114756
0.113482
0.294315
0.11356
0.11346
0.130182
0.273906
3067.7
0.113382
0.228215
0.11347
0.226511
0.113431
0.113376
0.10625
0.113631
0.132088
2.28656
0.116371
0.129103
441.507
0.11472
0.550116
0.113469
0.148147
1.36297
0.137459
0.113423
0.114147
4.51811
108.431
1.0118
0.113516
0.113249
99.1248
0.113439
0.113293
1.90358
1.15986
0.128237
0.11328
0.113502
0.113393
0.147606
0.113402
0.11348
0.113508
0.139908
0.11385
0.113508
0.120068
0.132549
0.113518
0.113487
124.828
45.1792
0.113496
0.113385
0.118251
0.0546256
0.11379
0.25969
0.123925
0.131403
0.404114
0.113499
0.111679
0.125206
0.113405
0.113319
0.683739
0.133983
569.313
0.113493
394.489
0.258415
0.312143
0.217971
0.120685
0.0175984
0.180528
90.9615
0.217829
14.9007
0.159048
0.113462
0.113679
0.157902
0.11349
0.113401
0.170357
0.249345
0.113529
0.113677
0.11345
0.113425
0.127427
0.172511
0.113518
1.59014
0.113261
0.113459
5.40222
0.137608
49.4363
0.114348
0.118236
104.223
0.293673
99.7812
0.113508
0.113273
0.11338
0.1133
0.12487
0.133609
0.113271
0.113484
25.9679
161.392
0.127804
623.795
0.171429
477.432
0.124616
200.244
0.11356
163.793
0.125576
0.171533
0.113348
0.113508
1362.07
0.113508
0.113508
0.113513
0.113508
0.113508
0.124965
0.172698
0.0506194
0.113508
76.9932
430.433
0.124816
0.113508
0.113508
0.113443
0.113406
0.00834402
0.113391
0.120941
0.12214
0.113508
0.113508
373.175
63.7139
0.0926258
0.140631
0.113596
0.128248
0.151625
0.113508
0.113508
0.113413
324.618
0.113508
0.113508
0.113508
0.113508
0.12662
0.113506
0.114378
222.599
0.119217
0.134192
0.113348
0.162639
0.148422
484.834
0.0862226
0.113508
4327.44
0.113507
0.113508
0.113508
0.129657
0.113508
0.127605
0.145289
0.113508
0.113508
0.18158
0.113508
0.113508
1538.4
0.142526
0.114909
0.140487
0.113508
0.113508
0.113508
0.113508
0.113508
5319.19
0.113508
0.100326
0.126191
0.113508
0.113508
4262.14
0.1134
0.18004
0.125536
0.113508
0.113508
0.113508
0.113508
0.124332
0.16541
0.113508
0.127137
0.160064
0.113508
0.113508
0.125474
0.113508
0.113508
0.125856
0.125009
0.113508
0.113508
7.97854
0.178162
0.126714
0.178418
0.146695
0.117039
0.139911
0.113508
0.113508
0.113508
0.113508
0.113508
0.114775
0.0627738
0.113508
0.125342
57.6012
0.126618
0.113681
0.113508
1.50329
2.05977
0.124555
22.9759
0.113508
111.489
0.113508
0.113508
0.113508
0.113508
0.191521
0.113508
0.147233
0.113508
0.113508
0.113508
0.113508
0.126718
0.124309
0.173886
0.112732
0.113508
0.113508
96.619
95.4614
0.113508
0.113508
5.7443
0.105127
0.115128
0.140195
0.113898
0.113508
0.113508
0.113508
0.113508
0.124756
0.133518
0.125854
0.113508
0.113508
0.126086
0.11359
0.176977
0.113454
0.113508
0.113491
0.127275
0.125221
0.126993
0.113508
0.124122
0.150057
0.113489
0.113444
0.113289
0.152274
0.113551
0.113508
0.113318
0.113405
0.113508
0.154711
0.129545
0.113508
0.113508
0.124238
0.113484
0.113508
0.208634
0.206226
0.127883
0.113508
0.113508
0.127587
0.113508
0.113508
0.113612
0.113508
0.113508
0.113508
0.113508
0.113508
2.23239
0.113508
0.113508
0.118152
17.3308
0.137608
348.522
706.17
0.113505
0.207499
20.1726
0.0799849
0.125814
232.281
0.113508
0.161066
0.268899
0.204109
5.10727
0.127423
122.545
0.493411
0.0918075
13.2203
0.113576
0.113508
0.282744
0.113505
0.582434
1.4987
4272.22
0.0917754
13.4728
0.232711
24.3691
0.717587
926.072
0.113482
0.113508
0.113505
5363.33
0.113777
0.1135
0.126303
0.113395
0.113508
0.113389
0.15626
0.114224
0.126877
0.113275
0.113421
0.114793
0.113436
0.131955
0.123783
0.113716
0.386004
2154.94
0.165526
0.11344
0.169764
840.193
0.09736
0.121822
0.113487
0.113375
0.123618
0.188718
0.127364
0.113307
0.12753
881.749
0.113576
0.113447
0.131448
0.113508
2971.9
0.124671
0.113508
0.148192
0.117189
0.113381
0.124577
0.127372
0.164091
191.538
0.395244
0.113564
0.158051
0.12999
0.113433
0.113739
0.128534
0.21158
0.113508
0.113504
0.113244
0.197275
0.124232
0.153289
3.29711
6437.4
411.74
0.12452
0.172953
0.113438
0.113483
0.113505
15.9173
0.113362
0.126278
0.255217
0.120375
515.217
61.5937
2672.04
0.113508
235.028
272.997
0.113366
0.113616
0.129778
0.113683
0.113373
0.113504
19.3455
0.113507
0.113603
0.113494
0.114216
734.016
0.316431
0.113353
0.113518
0.164634
0.113508
0.113469
0.364898
0.167807
0.124729
0.557023
0.113308
0.125919
21.973
0.113496
0.113457
0.16511
0.125619
0.15834
0.113414
507.207
0.166691
0.157761
0.112766
6.05828
0.114977
0.113503
8102.94
0.125259
0.113341
0.113508
0.115201
0.11351
0.115409
0.113508
0.165943
0.113478
0.113355
0.114004
0.119084
0.113479
0.113641
0.113447
0.113515
89.9646
0.114624
0.313941
0.182044
0.113508
0.186106
0.379883
0.34329
0.403721
0.347496
228.583
0.280583
148.505
0.11514
0.106862
0.113508
0.206516
0.11351
0.113508
0.924359
0.113456
104.028
2725.07
0.11666
0.113446
0.113503
0.113371
0.521327
0.209923
0.113517
0.317185
0.116032
0.113508
0.208498
0.113378
698.274
732.156
0.113521
0.113508
0.113419
0.114973
0.113548
65.0121
0.175568
36.3589
0.113508
1271.63
0.113479
0.400101
4531.36
416.119
1176.92
0.316381
0.113106
0.113508
146.05
136.186
0.113508
0.114246
1142.32
0.113471
0.113444
0.113508
57.1682
0.161788
0.113508
0.113507
0.113508
1.67502
0.411804
0.113311
0.113446
0.113473
0.130742
0.113479
0.113618
0.113973
0.638625
914.239
0.778083
0.113639
0.2772
0.573848
0.113458
0.113377
0.119092
0.129344
0.113763
0.113636
33.4998
0.153691
3.76071
0.113508
702.302
0.126417
0.113508
1280.88
0.590309
0.903767
0.453758
0.158758
0.113508
0.113508
0.114059
0.1135
0.117348
0.113897
94.1283
0.113559
0.34662
264.848
0.113508
0.116553
0.113453
0.113508
0.162742
0.113473
12.3089
0.113508
0.113508
0.117236
0.116446
508.844
0.574065
0.113508
0.675868
0.113554
0.113571
0.717824
0.123082
0.113535
0.230945
2.87713
0.113508
4.5597
0.77562
0.430424
0.226026
22.571
0.426968
0.171366
0.0875309
0.113915
0.360006
0.113508
0.113507
399.713
0.73706
20.7849
164.92
120.365
4.66587
0.113508
0.11382
1723.65
0.0238624
0.812072
0.12332
0.18203
1.8061
66.2261
30.8817
1003.4
0.102942
69.6782
1178.42
0.123728
428.766
5.97122
0.0859793
0.125973
0.14585
0.114627
119.152
0.128398
42.4444
747.177
0.113456
196.822
0.113508
0.118725
0.573492
0.11679
2.09237
0.810351
0.127419
0.139548
0.113385
0.113578
0.153885
26.8526
0.113508
0.447159
0.113247
0.113546
0.12295
0.125292
0.113519
0.113508
0.113508
0.113489
0.118073
0.126088
0.11351
0.11361
0.113448
1195.46
0.113508
0.114549
0.113787
0.113508
6.1989
0.120329
0.11371
0.113556
4190.34
3.19806
0.116271
3.98107
0.113474
0.113423
0.153071
972.129
0.114939
0.113385
0.119798
0.113796
24.5123
0.113518
0.113508
24.4389
625.856
0.549859
0.115002
0.114317
0.114343
0.114513
0.124724
0.128304
0.29783
0.114855
0.114549
0.114126
0.113746
0.277188
0.132758
0.0733203
0.418864
2414.65
0.134003
0.114508
773.915
0.516535
1.07742
2046.64
712.166
0.120115
0.11613
0.114301
0.113291
615.165
0.597948
0.464449
1.98145
0.154949
0.113937
0.114548
12.7336
1.63929
2616.86
0.129003
0.113861
0.128257
0.113471
0.225434
0.515913
0.107256
0.0419525
62.0742
10.6871
339.633
0.11588
0.115243
0.113485
4.92145
0.113534
0.113508
0.152174
0.13624
0.454149
0.115721
0.0115549
846.863
1540.04
5.33377
130.168
12.2431
0.113788
194.661
0.113684
7.92787
0.114329
0.11387
0.181459
0.174466
828.081
0.433272
4.27199
0.230349
53.6203
0.113508
81.0596
0.11343
112.675
117.964
2507
115.263
1940.58
0.113508
1233.25
7.55719
0.114182
0.114615
42.0612
147.221
69.9051
131.587
27.3086
0.111493
0.114451
0.0775304
0.114563
0.243427
0.113404
0.113505
0.242788
0.309554
0.113368
0.113544
0.113468
0.113416
0.114019
0.113431
0.113475
0.113494
0.113451
0.285114
0.113352
0.118488
672.371
0.113652
0.117868
0.114205
0.113404
0.113388
0.147635
0.113345
0.113494
793.98
117.79
14.8051
4689.95
0.141469
0.113738
0.113515
196.22
10.3087
57.1692
0.15431
6103.97
0.1924
93.2208
0.114089
2.12064
0.121826
0.182928
175.939
784.524
0.268337
1656.49
0.268487
343.805
0.120712
0.115848
0.115806
2.03716
0.697525
0.117003
0.114617
0.113334
67.4441
3.27915
101.557
0.0652604
0.115193
0.114255
0.116725
0.114082
327.285
0.113567
4125.68
1.52874
0.0253862
0.113426
0.113664
0.0705287
330.653
240.905
0.11444
0.111754
0.0779275
0.113898
4501.35
0.114253
0.113933
0.114119
249.305
2.9359
0.187195
0.114948
0.310681
243.034
0.113424
0.113371
0.113433
137.159
100.36
75.1674
32.1863
0.113508
24.293
0.281129
277.133
899.471
0.427774
0.186361
0.113789
22.8492