/*--------------------------------*- C++ -*----------------------------------*\
| =========                 |                                                 |
| \\      /  F ield         | OpenFOAM: The Open Source CFD Toolbox           |
|  \\    /   O peration     | Version:  2312                                  |
|   \\  /    A nd           | Website:  www.openfoam.com                      |
|    \\/     M anipulation  |                                                 |
\*---------------------------------------------------------------------------*/
FoamFile
{
    version     2.0;
    format      ascii;
    arch        "LSB;label=32;scalar=64";
    class       volScalarField;
    location    "0.25";
    object      k;
}
// * * * * * * * * * * * * * * * * * * * * * * * * * * * * * * * * * * * * * //

dimensions      [0 2 -2 0 0 0 0];

internalField   nonuniform List<scalar> 
32842
(
0.0272576
0.0273187
0.0272472
0.0272471
0.0336562
0.0272471
962.135
311.254
0.0272471
0.0272471
81.9217
17.1982
0.027247
0.0272471
0.0272398
0.0272528
0.0272471
0.0272471
0.0272407
0.0334616
0.0344007
0.0339924
0.0332181
0.0272472
0.0330348
0.0272471
0.0272471
0.0312478
2.08916
0.0272437
61.2211
0.943283
127.367
0.0272388
253.655
581.312
0.0342794
0.0272401
0.0272219
0.0272313
0.0272472
0.0343232
0.0272471
0.0272471
0.89919
0.0272459
196.427
0.0272541
0.0340608
0.737082
148.744
0.0272471
0.956112
0.73529
0.0272472
0.07682
0.0272471
0.404824
0.0272472
0.0272471
312.781
0.953576
0.952222
0.0343845
0.0272436
8.49788
0.0272472
0.968127
0.946699
0.0273199
0.0310271
26.5969
0.94763
0.0272471
0.0272471
0.0271867
0.11013
0.0272471
0.949954
190.875
0.0335775
0.0272471
0.0272471
0.953956
0.967006
0.0272471
0.0272471
0.0816262
0.465479
0.0272471
0.0336575
0.0340119
101.499
0.0272459
0.0272471
0.0272333
0.948376
0.0272419
0.957307
0.0272471
0.0272471
0.0364567
0.0273696
24.8048
0.948059
0.946409
20.2205
0.027415
0.937094
0.0272888
0.0272471
0.0272471
2.08557
0.0272471
0.0273873
0.0341667
0.954043
22.1212
0.0273559
0.0272462
0.0272471
0.0272471
0.326172
0.0272472
0.026556
0.950422
0.936038
0.0272335
153.202
0.0272472
0.0272471
0.0276002
0.0416997
0.924243
0.0402942
0.0272539
0.0274482
0.35099
0.0272422
0.027239
0.94935
0.027243
0.952189
0.223293
0.0272445
0.0272456
794.537
0.0272448
0.0272471
0.0272471
0.0276201
0.878534
0.0323299
173.901
0.0272505
0.0272471
0.0272471
0.0272422
0.0272286
0.0272471
0.0272364
0.0272471
0.0330905
0.0272471
0.0272544
0.0272422
0.0272471
0.0272468
0.0272713
118.32
0.330475
0.0389717
62.3236
0.0272471
0.0345496
47.6255
0.0272467
0.027392
0.0272471
0.0272471
0.0317121
0.0272471
0.0272471
0.0272471
0.954403
0.0272471
0.94655
0.0272471
0.0272291
0.0272471
0.0272471
0.572464
0.945138
0.0272471
0.946451
0.027226
0.0272404
0.0272276
0.947431
0.0272471
0.0272312
0.0272368
0.84587
19.5725
0.587096
0.0605542
0.0272275
0.0343976
0.940781
0.0272255
0.027256
0.0275925
102.919
83.9751
0.0272471
0.0272471
0.0272199
0.027198
0.0272546
0.0272541
0.401377
0.0272471
0.0272471
0.0272458
0.0370237
0.937537
0.0272472
0.949733
0.0272458
215.518
0.0272471
0.0272471
0.0272149
0.0272471
229.459
0.0334955
0.0337091
0.0100779
0.027208
0.952144
0.256195
0.0272472
0.0272364
12.8068
0.0272443
0.0272352
0.950439
0.0272472
0.0272471
0.0272472
0.0272471
0.0272471
0.0272498
0.950909
0.0272198
0.0272471
0.0272471
63.3256
0.0272471
0.0272446
0.0272471
0.0272471
0.0272471
0.0272472
0.942751
0.0272471
0.0272471
0.027247
0.0272381
0.0272472
0.0272471
0.955753
0.0272471
0.936509
0.0272471
16.5904
0.0272344
0.0361504
0.0272471
0.02723
0.0272471
154.846
135.267
0.0272471
0.027249
0.0698509
43.5215
0.0272471
0.0343873
0.0272471
1079.97
0.0272472
0.945366
162.533
0.220501
0.0269789
0.944332
0.0272471
0.0272258
0.0329809
89.4708
0.0272472
0.0272471
0.0272473
0.0272471
0.0272471
0.0272471
0.0272471
0.0272412
0.950026
0.0272472
0.0272471
0.953786
0.0272471
0.0272471
0.0272471
0.0272181
245.778
0.0272471
0.0272428
0.0272264
0.361202
0.0272471
0.0294796
0.0272472
0.0272471
0.0272299
0.0272472
0.0272585
0.0272471
0.0272525
0.957617
0.0272471
0.0272471
0.027247
0.0272471
0.962908
0.948269
0.0272471
0.0272471
0.0272464
0.0272503
0.0229263
0.0272471
0.949218
0.0272471
0.0272471
0.941757
0.951457
0.949103
0.0272982
75.3235
0.0272357
0.948168
0.0272471
0.0272467
0.0331282
0.027225
0.0272471
0.0272136
0.0272471
0.0272471
0.0272223
1.52421
0.0272471
0.0272457
0.0272471
0.0272471
0.00480028
0.0327557
0.0272471
1431.06
0.027247
0.0384255
0.0272471
0.938113
0.0359889
0.0272471
0.0280845
0.0331699
0.0272355
0.949563
0.956792
0.027236
0.0272058
0.0272472
0.0272471
0.0272471
0.0272471
0.0272469
0.0272471
0.0272435
0.0272471
0.0272471
0.0272398
0.0272471
0.0272467
0.0272375
0.027227
0.0272554
65.1976
0.0272471
0.0272533
0.0273042
175.766
0.0272497
0.0272319
0.039175
0.0272471
0.0336983
0.91878
0.0272471
0.0272471
0.0272405
0.0272471
0.0272444
0.0272557
0.027248
0.0272308
3945.2
0.0272356
0.944155
0.0272471
0.0344835
634.605
0.0272471
0.0272457
0.0272471
0.0265598
0.0272472
0.0272054
0.0272471
0.0272471
0.952524
0.0335331
0.950786
0.0272554
1564.64
2.84281
0.953041
0.0343377
1.12968
0.0344488
0.954208
0.0272472
0.0272541
0.0301619
0.0272472
0.0325789
0.182319
0.0272472
0.0272106
0.0272672
78.9177
0.0322089
0.0272315
0.0272414
0.0338743
0.02723
0.0272877
0.0272448
0.0347973
0.0272471
0.0272472
0.0272471
0.027261
0.0272465
0.953002
0.0272466
0.0272986
0.0272471
0.0349016
0.0337331
0.0272471
0.0272548
0.953709
0.950972
0.0272471
0.0272472
0.0272471
0.0272471
0.033599
0.0272523
0.497088
0.953502
0.0272471
0.0272472
0.955395
0.0272321
0.0272471
0.0350995
0.027378
0.0303324
0.027485
0.945019
0.0344857
0.943617
0.950968
0.0278509
0.0272394
0.03407
82.4346
0.0272561
0.950959
0.0340777
0.957149
0.032241
0.0272471
59.688
0.0352391
0.027247
0.9496
0.0272373
0.939423
0.0272464
0.0272472
0.0363156
0.0385156
64.235
410.231
0.83538
26.2711
68.1955
35.7949
87.3276
0.953517
0.027256
0.0272471
0.0272596
0.955559
0.475445
0.959851
0.00920598
0.027244
0.0272471
0.0323484
0.863432
0.0272473
989.237
0.416809
0.0272026
245.175
0.0241617
24.1179
0.0272472
0.0272471
0.0272223
0.951419
184.625
0.0272471
0.0349875
0.0272391
0.300481
0.944611
0.0272427
0.027256
0.0272471
0.0272471
0.391241
0.12993
0.0272471
0.0272471
0.0272485
0.94212
0.574036
0.958655
0.0272511
0.0272471
0.0272471
32.2781
0.957004
0.948253
2.88612
0.945165
0.0272471
2.33347
0.944298
0.0272465
34.3918
0.0272472
0.0336435
0.0272471
0.0273373
0.0337674
0.0331806
0.0272471
0.0272457
0.0272364
0.0272355
0.956549
0.0345472
0.0272472
0.0272296
33.1803
0.0272471
0.047854
18.8253
0.962709
0.0272431
0.0272471
7.10144
9.82902
167.896
0.0272296
28.6593
0.957712
0.936877
0.0275086
0.603888
0.0272472
0.0272471
0.0272472
0.0272471
0.0272471
0.71096
0.0338895
0.0272468
0.0272471
0.0272453
0.0272471
0.0272128
0.0272471
0.0272288
0.6965
0.956037
0.0272352
0.0272471
0.421701
0.845214
0.919817
0.0272247
0.427397
0.0272471
0.0272471
0.0272367
12.7283
0.952798
0.0272471
0.0333693
0.0272471
0.0591845
0.0272471
0.0272471
0.0272472
0.0272472
0.56907
0.0272471
0.0272471
0.448736
0.551921
0.0271018
0.0272472
0.0272471
0.951475
0.964104
0.0272471
0.946803
0.0334312
0.0272471
0.0272471
135.474
66.988
0.0272471
0.956002
178.996
0.0272466
0.136797
0.0272454
0.0272471
0.034096
0.0360096
0.0280227
0.0272599
125.038
0.0272471
0.143389
0.0272471
0.0272471
8.91841
69.5363
0.454327
0.282248
0.0272471
0.0272472
0.0327161
0.0332876
47.7347
161.737
24.4633
112.887
0.0272867
0.0273205
38.0741
0.0272471
0.773287
0.0272084
0.0272334
0.963965
186.889
0.0272459
0.0272384
0.0272471
0.0272471
0.0272215
0.0272471
0.0272441
0.0272471
0.0272471
0.955155
0.0272471
0.0272342
0.0272471
0.963122
0.0272471
0.0272185
0.0272543
0.926364
0.0272471
0.0272444
0.0271654
0.0272471
0.0272244
0.0272472
0.0276576
0.0272285
0.0272464
0.0272373
0.0272493
0.0168242
0.0272432
0.0345586
0.0299175
0.0348079
0.0272471
0.0358278
0.0402584
0.938215
0.0272435
0.0272472
0.0341054
0.440712
0.0272471
0.936541
0.0332138
0.0272471
0.0272471
0.0276732
0.0272301
0.0272318
0.948123
0.0272471
0.0272471
0.0272403
0.0343781
0.934261
0.0272488
0.0342459
0.0272471
0.032668
227.925
202.895
0.0328317
0.0272247
0.954428
0.0272471
0.0272471
0.0272471
0.0272485
0.0272547
0.0272231
0.572017
0.0272471
0.0275318
0.952128
0.0350274
0.0272449
0.0273015
0.0272471
0.951308
0.0400599
0.953229
0.0272365
0.950361
0.937841
0.0338513
0.0272472
0.0323283
0.0272305
0.034875
0.0272413
0.0272471
0.0342105
203.546
0.93615
0.0272222
22.8638
0.0272452
0.936332
0.0272527
0.0272471
0.0272471
0.0272471
0.0272177
0.0272359
0.027224
0.0272471
0.0272471
0.0272313
0.0272278
0.0272489
0.955656
0.0272955
0.409207
0.0272481
0.0272516
0.0337284
16.5238
0.0272514
0.0272326
0.034255
0.0272471
0.0273081
0.0272473
0.0368322
0.966462
0.0272471
0.0272471
0.0272524
0.0272455
0.0272471
0.0272732
0.0272471
0.0272471
607.432
0.027247
85.2736
0.027238
0.0272458
0.0272667
0.0272963
0.0331031
0.0272362
0.0272471
0.0272471
0.0272471
0.799295
0.0272471
0.0272514
0.95249
0.0272437
0.947954
0.0272471
39.1403
0.0272253
0.0272333
0.959789
129.694
0.0272354
0.0272331
93.777
0.0365066
0.027247
0.0272339
0.0272471
0.0272449
0.0272432
0.94515
5.88397
0.93814
0.0272471
0.946963
0.0272471
0.0272201
0.0272153
0.0345051
0.02999
0.0272471
0.0272494
0.0272471
0.027239
0.0273537
0.0272471
0.0272205
0.0272259
0.0272608
0.12925
0.0359064
0.0272471
0.624584
1.06883
0.0272467
0.0207903
0.249619
0.0272471
0.0272471
0.027244
0.935864
0.0272471
0.0272471
0.944388
0.0340375
0.0272471
0.0272471
0.0272471
0.0272428
0.0300375
0.834389
0.0272471
0.0272469
0.948817
0.027247
0.0272462
15.1951
0.0272348
0.0272471
0.0272472
0.0272471
0.948276
0.0272276
0.0272445
0.0272471
0.027247
0.0367865
0.0272471
0.948764
0.0336868
95.162
0.0272471
0.0272471
0.0272469
0.0272284
0.0272457
0.0272471
0.208462
5.06822
0.032101
0.10254
0.0272471
0.0328233
0.0272471
0.0272471
0.0272319
0.0272471
0.0272435
0.0272471
0.0272471
0.027247
0.0272501
0.0272471
102.205
0.0272517
0.961669
0.0272426
0.954954
0.956683
0.0272471
0.033091
0.94968
19.9435
46.0903
0.11755
0.0272469
0.0272472
0.0272471
0.0272472
0.735128
0.0272472
0.541535
0.35035
0.366024
0.318707
0.030047
55.3754
0.0272471
5.74677
528.179
0.0272471
249.777
0.0283641
0.0272426
0.0272471
0.0272471
5.6024
0.0272293
0.945498
0.0339207
264.687
0.933927
0.950437
0.0386278
0.0272471
0.0272422
0.0272301
0.0272215
0.0272593
0.0272471
0.027247
0.0272515
0.873884
0.0358146
0.0272349
115.233
0.0272433
0.0272399
0.0272449
0.0272394
78.7128
0.503753
0.0272353
0.0272357
0.0272447
0.946784
0.491276
0.0272337
0.666892
0.930859
0.753131
0.0272525
0.0272526
211.45
0.952642
0.0272096
0.0272469
0.0272472
0.0272528
47.073
0.0272427
0.930757
0.0272247
0.0272471
0.0272468
0.0272409
0.0284351
0.597354
0.0272377
0.02725
244.644
0.577599
0.949201
0.0272281
42.875
208.89
0.0272467
0.0272472
0.0272266
0.959169
42.4266
0.0272471
0.0317182
2.77719
0.0272403
0.0301672
1.49034
0.0272379
0.0272471
0.0272471
0.0272471
74.9819
0.0272315
0.0272334
0.00953271
43.2418
0.0312068
0.0296402
0.173799
0.0272485
163.17
0.935782
0.0272475
0.953749
0.966517
24.1611
0.0217695
24.9926
19.4437
0.0272296
118.516
0.948435
0.0184295
0.0272498
0.0272009
0.0272468
0.0272412
0.0272225
0.0272483
0.0272268
57.0079
0.0272471
0.0272471
0.12745
0.0272471
0.0272444
201.823
0.546859
0.0358531
0.0293058
0.0272495
0.735688
167.767
0.942711
0.0272527
0.0272612
0.0272552
0.911596
218.44
0.0364557
0.027671
148.421
0.0272412
0.0288413
0.0273364
0.0272459
1.62031
0.0357894
0.0272563
0.27286
0.0272488
0.0272268
0.586218
257.273
102.269
0.027229
0.0272451
0.0272471
0.0272272
0.0274447
0.0276586
3.14136
0.0272471
0.0272471
54.2735
0.0272557
0.0272391
0.528291
0.0272471
30.6539
52.5511
0.0272471
0.0272502
41.4977
10.5693
29.9085
31.6159
0.0272519
109.252
13.0557
0.0382509
148.404
0.0277117
0.951311
0.0272141
0.0272469
0.0273287
0.803403
0.0402795
0.0272496
0.614844
0.9524
15.7182
1.44959
0.0272471
0.63841
1.941
0.356478
0.0272471
0.027247
6.92099
0.027257
0.0272627
0.642802
0.0276448
94.2234
5.70631
0.0465085
0.0295608
0.0272388
0.0272325
22.2119
1.0573
0.0272472
0.0273144
0.0272471
0.910525
0.0272292
0.876937
107.2
0.0273487
0.743603
35.2583
0.162423
36.1685
70.3718
124.053
0.0273853
0.953929
39.5269
0.0772716
0.0320036
0.0272471
41.3378
0.0272432
0.0273465
0.0419382
0.00574326
0.946098
0.422423
0.0365032
0.944244
456.74
0.0272424
59.8282
0.0385089
0.943002
18.9131
0.0272384
0.00513942
0.565708
103.173
0.0389112
0.0272472
0.955734
0.0272471
0.0338616
1249.58
0.0332449
0.0272648
0.94766
0.634694
0.0272301
147.485
0.0272471
0.0272466
0.0272331
0.0272392
1.19091
0.0328631
0.0272471
0.467972
0.96892
0.0272486
0.0272898
35.1438
0.0272359
0.0272471
0.0272888
20.6284
20.1102
0.027218
82.7942
0.0272471
77.0089
0.679064
0.027732
0.946359
16.0721
0.24555
0.0520592
0.0273203
1.29166
0.788699
38.6793
248.956
70.8446
0.0344419
8.58796
0.0272471
113.152
0.0272437
0.945333
0.0272273
9.61386
0.0272472
0.0341728
0.0306375
3.16165
8.69954
0.0340401
0.0272502
171.845
0.945868
0.0272248
0.0272471
22.5602
0.472526
0.0272471
0.958062
0.0272472
0.978161
0.992182
0.958226
0.0272506
0.0272421
13.0808
195.673
0.0335504
0.0272761
0.036114
0.0272372
0.0272436
2.79412
0.0272471
0.942284
0.952186
0.0272742
0.0195377
0.0272471
73.3972
199.229
0.0272471
0.0416514
19.8152
0.0272472
0.0272471
0.0272364
0.597252
0.0272471
0.0273969
0.0272248
0.0356
0.0273793
0.0274665
0.0272666
0.0272471
0.0272274
0.0272514
0.0272471
0.0272123
0.0272354
0.0272269
0.0272289
39.1559
0.0273174
0.0272439
218.03
0.0268455
0.0272426
0.0272429
0.0273713
0.0272471
0.0349754
13.4138
0.0272399
0.027267
0.0273819
0.0278124
0.521802
63.0896
0.0395366
0.936413
108.476
0.0272543
0.027235
151.682
124.951
0.0337756
0.946934
0.0272794
0.0272441
154.219
0.0339032
218.56
0.0354217
0.036034
0.0320184
0.0272351
188.945
0.0272106
0.0272472
0.0373084
157.615
220.388
0.936825
133.31
0.0332625
0.0327603
0.0714349
0.0272049
195.584
54.4334
0.0330192
66.7618
0.0272468
128.943
0.027237
0.0280932
0.0272368
2.61265
0.0272471
94.4223
0.0272761
0.0272538
0.037005
6.85779
0.389305
0.0275961
0.0272471
0.0272445
27.1617
0.0272556
0.0272471
170.858
0.0272471
24.2807
0.0272249
0.0272677
0.0273248
0.0272403
0.0272377
0.0272471
21.8539
0.0272255
0.266519
0.923585
0.0272878
0.0272523
0.0272538
0.0272275
0.027248
0.0272243
73.0104
0.0272236
0.0272227
0.0272471
0.0373915
0.934765
0.0272371
0.0272415
0.0272471
221.842
0.0272472
0.0272406
0.0272474
0.0272417
0.0272271
0.949816
0.0272254
0.0272475
0.0272431
231.502
0.0273311
0.0272497
0.027203
0.950111
0.0273408
0.0274192
0.0259407
0.0272494
0.0274162
0.0272385
8.19734
0.0272468
0.0272367
0.0262028
1.02422
43.1104
0.0272525
120.031
105.766
115.953
0.0272471
123.935
0.0278981
0.0327843
0.0272483
75.5868
66.7289
0.0272277
0.0272472
0.0272548
0.0272411
18.5378
64.6052
0.0272467
0.0272471
0.0267848
0.0272447
0.0273493
100.78
0.0272478
246.188
200.468
0.0272472
0.027805
0.783435
0.0277335
0.0265625
0.0272472
0.0272573
0.946955
0.0272372
210.057
0.0272266
0.0274744
0.0272504
0.950496
0.0366056
0.0272469
0.0272472
0.0272471
0.0272471
0.0275331
0.0272127
21.556
0.0272471
0.0261927
0.0263932
0.0421854
0.0272341
0.128811
0.965426
0.0272377
6.57284
0.501755
0.0394024
0.0272517
0.0272471
0.951943
5.68223
0.823001
0.361311
0.0272454
0.0272471
0.0426294
0.0272275
0.0955523
0.0272471
0.0272181
0.0342229
0.154688
0.0272454
0.0272471
118.975
0.0272471
0.0272262
0.0272471
0.0272471
14.8891
0.931374
68.6811
0.0272471
0.0272242
0.0272293
150.082
0.0277756
108.585
212.652
0.0358056
0.0272247
0.0272427
0.0272487
0.0272471
225.476
249.054
0.0272471
0.0272462
0.0272252
0.0272471
0.946713
0.0272471
0.953905
0.0272471
0.954555
0.0343866
1.50547
0.0272472
0.0272471
0.0272471
0.0272965
0.0272274
0.0272611
0.0272471
0.943395
0.0272861
0.101451
3.21648
0.663289
0.027247
0.0272375
0.0272472
0.0272471
0.0273905
161.695
0.0272471
0.0272073
0.0272349
0.963407
0.127311
207.673
97.1502
115.737
0.943226
0.042561
454.944
0.0271015
0.946792
0.0272344
0.0271919
0.0398156
0.883172
70.856
0.064328
0.0272646
0.949577
248.951
0.0272471
0.0272471
0.027347
0.027215
0.027237
0.0272244
0.0340271
134.49
0.0272472
49.4782
141.419
0.0272471
0.0272471
0.0272471
0.0272404
0.0272471
0.0272471
0.0272426
0.0360049
10.7795
0.027332
0.0252415
48.6567
0.0274133
4.28775
0.955339
0.0272454
0.0339551
0.0123434
0.0275135
0.0339472
0.0347587
0.277151
0.950143
0.0273489
115.742
0.0272471
0.0272471
0.0228845
0.0272297
0.0272248
0.0272292
0.0272472
38.0702
0.0272472
0.0272256
0.0272449
0.0272471
0.0272353
0.0272522
0.0272432
0.0273474
0.95448
0.0272471
0.0143047
0.0272456
0.0276686
0.0272384
0.0272471
114.871
0.0273144
0.0272826
0.932514
0.0274418
0.0272289
0.0271907
0.028917
0.108007
28.8393
0.0276876
0.0272471
39.3803
0.027247
0.0272369
0.0272446
0.387184
0.0272444
0.0272245
0.0272449
12.0472
0.0326995
0.0272467
0.0341067
0.0272414
0.955363
0.0369219
0.0272245
0.0141791
0.0272472
0.027247
0.0272317
0.0272471
0.0272471
0.0272516
0.0347056
0.0272471
0.027238
0.0276806
0.952777
11.5007
0.0272472
0.027501
0.0357015
0.0276015
0.768195
0.94515
0.400078
0.0277922
0.0273627
0.0345578
0.0272469
0.0276707
0.0272472
26.9504
0.933028
0.0343564
0.948866
0.950636
0.0272222
0.0272472
0.958356
0.0272471
0.0272037
0.276863
0.0330912
0.0272408
0.0272461
0.0276665
0.0272337
0.0272342
0.0272467
0.0272471
0.0272256
0.965005
0.0272387
0.0272471
0.0272223
0.0272223
0.0272471
0.242483
1.09291
0.0358721
0.0272332
0.0334414
0.051436
0.0272365
0.0272471
0.0272311
45.5764
0.950172
1.39545
0.0272373
224.602
0.027244
0.0272297
0.870729
0.941667
0.0272315
0.0273298
0.0272471
0.0272488
0.0272558
0.0272226
0.0272315
0.0272316
0.113506
0.172903
0.953624
0.027249
0.0272499
261.393
0.0272498
83.3603
0.0272471
0.0332264
0.0272111
0.0272471
0.0272471
0.0465344
0.808838
0.0271935
0.0272027
0.0272471
0.0272471
0.0178792
0.0272263
0.958435
0.033201
50.3884
0.941806
0.0272471
83.1417
0.0272471
0.0272343
0.0272471
0.0272471
0.0272246
0.0272195
0.949067
0.0272463
0.042811
0.0272471
0.0272996
0.0272453
548.955
0.0272252
0.0272266
187.934
0.950015
0.0272471
0.0272385
0.0272436
0.0272261
0.331798
0.0272469
0.949694
0.0272759
0.0272252
0.104724
47.7948
0.0272548
0.0268484
0.0272315
0.0275045
0.0272471
0.0272471
201.921
0.027235
0.0272471
0.0387701
0.0272471
0.027225
0.0272078
0.0272472
0.0273333
0.0478378
0.0272469
0.0274449
0.0851456
76.1365
159.07
0.0272472
0.0272471
79.8925
0.0272471
0.0273246
215.666
0.0272069
67.6131
99.3555
208.481
0.947348
0.0272122
0.0272371
0.0272525
0.0272471
0.0272332
0.945324
0.0272415
0.953854
0.0272283
0.660652
0.128048
0.0272505
236.917
0.0272405
0.0272458
0.0292416
94.2714
0.95307
0.0272471
22.5519
0.0272471
0.0272471
0.0272471
0.0272614
0.027244
0.0272471
253.23
0.94027
0.0273944
0.0272251
0.0274134
0.0272471
141.651
0.0272471
33.115
0.0272471
0.0272471
0.02721
0.0349854
0.0272283
34.4919
174.375
0.0272506
0.0272564
0.0272471
24.2745
0.0272474
0.0272471
0.0272526
37.5189
0.0272319
0.0272471
0.0272472
0.0274098
161.226
95.7479
204.944
1.7407
208.598
0.027235
0.0272713
0.0273513
6.36146
0.0272409
0.0272539
18.2693
0.0297216
0.618987
0.0272315
0.0272193
0.953503
0.955046
190.324
0.0272471
0.0272256
100.825
20.0811
0.0944741
69.8142
0.677061
0.0272471
0.0272728
52.6085
0.0272405
0.0272471
0.0336107
75.7799
0.0239877
254.663
0.949547
127.906
0.0272434
0.915174
29.0817
0.0272321
0.0272108
82.1184
0.027346
0.0272522
0.0272471
0.0272444
0.0276147
0.0364763
0.0273624
79.5758
0.0272189
0.0272471
0.0272267
0.0271613
0.0318984
0.21277
0.0272536
0.0272341
0.0272465
3.85714
203.215
0.0272394
0.0272513
0.0267303
0.02725
0.0277987
0.0272471
0.0272457
216.749
0.0274508
46.4811
0.0272471
21.1518
0.0272366
0.146535
1.04851
42.7529
0.0272471
0.0275756
1.3136
0.0272251
0.0272471
0.0272337
0.0272455
0.0273804
0.0212092
5.44757
158.944
23.2016
77.0211
0.0334502
75.2971
0.033648
0.0357089
0.027247
0.0272468
0.0335471
0.0272353
0.0325413
0.0272469
0.0273726
0.0272449
0.0331907
0.0272433
0.027762
0.0350526
0.0272471
0.0272471
0.0272522
0.0272317
0.0272409
0.0272471
0.936489
0.0272453
0.0272234
30.4242
0.0272272
125.134
159.607
0.949275
79.2099
0.948342
160.594
0.949203
0.0272471
0.0272471
0.0272347
0.941125
0.0272471
266.954
0.0272539
0.0273221
0.0272471
0.0272427
0.0272395
0.0272524
0.027238
0.027006
0.0272442
0.952101
0.0272294
0.0272471
106.739
0.0274904
0.0272335
308.431
0.946935
0.027247
0.0272444
0.0272471
0.962297
104.004
88.3896
200.358
117.647
0.0272369
0.0272471
0.0272471
0.0272773
0.0272215
0.0272471
0.032782
0.0272471
0.0272471
0.0272471
0.027344
0.027243
0.0272542
0.0272479
0.0272355
9.13891
12.149
52.4834
0.280784
0.816957
0.0272342
0.0272452
112.378
0.0267282
0.0272471
86.0495
0.0338396
0.0272129
0.0272412
0.0432301
29.4609
0.972422
0.0272385
0.0272471
0.0346198
104.255
0.0272471
0.0272125
0.0272471
0.226645
4.99034
0.0273784
0.036407
0.0272469
0.0272472
0.0272471
0.0272477
0.0272482
0.027243
0.0272333
0.0272282
0.0272452
0.0272448
0.0272435
0.0272381
0.0272462
0.0275513
0.027247
0.288992
0.0933081
131.53
6.92453
0.951517
0.953983
0.0159889
0.258234
0.0272471
0.0272616
0.0271723
0.249792
0.932018
0.945445
0.0276589
127.345
251.507
1.63678
3.2866
0.0332392
0.0177195
0.0275019
192.848
0.240212
14.0008
0.0272268
0.0272452
0.0272447
0.0272302
0.933897
0.102492
0.0999543
2.49618
0.0274436
0.027248
0.0272554
0.0272258
0.272145
0.0311433
0.0272721
0.02726
0.964066
0.017718
0.0272469
0.0272433
0.0271997
0.0272276
0.0272471
0.0272323
0.944352
0.0272471
0.0272471
0.0272465
44.216
0.027389
0.027941
0.0278479
0.0272056
5.02287
0.0272354
0.0273
0.0272475
0.00226675
34.4419
7.71868
0.0272413
0.0291028
0.0272415
0.0272414
26.3342
0.959796
292.51
4.46874
0.945753
0.0272471
22.9462
0.0272471
0.0272471
0.0272471
0.0273361
0.0272471
57.5518
0.0272279
0.696578
4.82751
0.0272434
0.0272413
0.0432506
0.0274056
0.957467
0.0272471
0.0675075
0.0272471
0.0273311
8.39777
0.0272295
0.0272528
246.993
0.0272271
0.0272262
0.0272332
164.249
35.5881
0.027226
0.473247
0.0272261
0.0272173
0.0272361
0.0272472
0.027223
0.027252
0.0272466
0.0272471
0.0272075
0.0272056
0.141459
0.0272472
0.0182362
0.0272825
0.052222
0.0342533
0.613424
221.092
0.0272471
0.0272471
0.0272384
31.2699
86.9341
0.0272471
0.0272398
27.4375
50.6484
0.0276517
55.782
1.38618
0.0272597
0.938272
0.946735
0.0274379
0.0272482
0.0272249
0.0273827
0.952928
0.0269918
66.9376
0.0272471
0.0272425
147.217
164.801
0.0273407
47.9053
250.712
0.0272558
0.0273006
0.0369669
0.0272433
282.91
0.0352542
0.0340213
0.0367722
0.0272378
0.0272499
160.993
0.0614106
0.0272695
0.027246
0.0272448
0.0272412
0.0272471
0.0272471
0.946997
183.382
0.867698
0.0272471
0.0272534
0.0272471
0.0272322
0.0273487
0.0272295
0.0272728
0.0275079
0.130875
0.0272338
0.91073
0.953324
0.0272471
0.0272633
0.0272432
284.754
0.0272471
0.0276228
0.280382
0.960935
0.027241
0.0272471
0.0272291
0.0272404
0.0273926
78.4892
0.0275356
0.0272343
12.7668
18.9016
0.0272089
329.547
0.0271773
0.0281239
0.0280796
0.0272319
0.959657
0.0272172
0.027216
0.0272115
0.0273486
0.0273764
0.0273467
0.0353985
0.0273997
0.0334182
0.0274226
0.0250179
0.0274712
0.027217
0.0273886
0.0272829
0.0373775
0.943065
23.6613
0.0277507
0.027598
0.033655
0.0272442
0.0367783
0.944785
1.18654
0.0353848
0.650763
0.0272319
0.0417628
0.0474278
0.0272471
292.554
51.4913
0.889588
0.0352341
0.034471
0.927007
0.0272067
0.0272133
0.0287702
13.0578
0.0272619
0.0272416
0.19744
0.0272712
0.0272374
0.0360929
0.626648
648.374
0.0272256
0.894004
0.0272397
0.889201
0.0272329
0.0272248
0.935965
0.0272652
0.0379882
14.6343
0.0263256
0.0357681
197.825
0.0274526
0.646164
0.0272387
0.960488
7.14199
0.0344592
0.0272392
0.0268035
4.14003
84.6738
5.14667
0.0272472
0.0272059
79.5482
0.0272356
0.0272107
11.8466
6.40522
0.0367875
0.0272079
0.0272453
0.0272267
0.953935
0.0272279
0.0272418
0.0272471
0.367786
0.027296
0.0272471
0.0284023
0.039339
0.0272479
0.027242
98.3087
53.2961
0.0272453
0.0272265
0.911992
0.233454
0.0272921
0.872063
0.032653
0.0385439
0.326129
0.0272447
0.0130735
0.0332214
0.0272298
0.0272203
4.76587
0.0278364
77.462
0.0272437
299.598
0.554106
0.111823
0.929907
0.027369
0.435565
4.23121
83.9828
0.926603
27.5983
0.937833
0.0272384
0.0272914
0.952281
0.0272441
0.0272284
0.946065
0.567121
0.0272485
0.0272734
0.0272368
0.0272327
0.0345549
0.948313
0.027248
1.03379
0.027205
0.0272379
4.76516
0.948997
56.1306
0.0273884
0.968161
110.282
4.57696
116.088
0.0272472
0.0272074
0.0272276
0.0272113
0.0330534
0.0380573
0.027207
0.0272421
38.7062
82.9498
0.0359443
373.57
0.945814
330.044
0.0335744
107.449
0.0272636
102.899
0.0340883
0.951704
0.0272232
0.0272471
187.497
0.0272471
0.0272472
0.0272462
0.0272471
0.0272471
0.0330449
0.946818
0.0636137
0.0272471
83.9942
182.23
0.0329532
0.0272471
0.0272471
0.0272356
0.0272299
0.0616577
0.0272271
0.93527
0.939335
0.0272472
0.0272471
183.455
83.5136
0.964615
0.953407
0.0272732
0.0351598
0.955085
0.0272471
0.0272471
0.02723
221.789
0.0272471
0.0272471
0.0272471
0.0272471
0.0339444
0.0272469
0.0273948
159.634
0.0301101
0.0401415
0.0272087
0.946324
0.9556
219.093
0.0147394
0.0272471
197.42
0.027247
0.0272472
0.0272472
0.961559
0.0272471
0.0344636
0.962405
0.0272471
0.0272471
0.948611
0.0272472
0.0272471
278.517
0.960076
0.0274858
0.958735
0.0272471
0.0272471
0.0272471
0.0272471
0.0272471
272.082
0.0272471
0.953196
0.0337007
0.0272471
0.0272471
159.086
0.0272341
0.926483
0.0334534
0.0272471
0.0272471
0.0272472
0.0272471
0.0327312
0.949153
0.0272471
0.0342211
0.945929
0.0272471
0.0272471
0.0333232
0.0272472
0.0272472
0.0335016
0.0330929
0.0272471
0.0272472
18.9762
0.944424
0.0340126
0.953712
0.953948
0.0278552
0.959493
0.0272471
0.0272471
0.0272471
0.0272471
0.0272471
0.0274573
0.127263
0.0272472
0.0332583
58.5691
0.0338821
0.0272765
0.0272471
8.2866
0.900227
0.0335224
19.6761
0.0272471
10.9357
0.0272471
0.0272471
0.0272471
0.0272472
0.942563
0.0272472
0.95552
0.0272472
0.0272471
0.0272471
0.0272471
0.0340269
0.0327078
0.944341
0.958755
0.0272471
0.0272471
63.9256
69.4503
0.0272471
0.0272471
12.8972
0.960827
0.0275887
0.950366
0.0273368
0.0272472
0.0272471
0.0272471
0.0272471
0.0329514
0.954533
0.961052
0.0272472
0.0272471
0.0336222
0.0272633
0.949604
0.027238
0.0272471
0.0272434
0.0342746
0.0331981
0.0341073
0.0272471
0.0326046
0.949569
0.0272439
0.0272355
0.0271015
0.951995
0.0272624
0.0272471
0.0272143
0.0272285
0.0272471
0.955252
0.0355085
0.0272472
0.0272471
0.967936
0.027242
0.0272471
0.938128
0.937365
0.0346488
0.0272471
0.0272471
0.0344905
0.0272471
0.0272471
0.0272622
0.0272472
0.0272471
0.0272471
0.0272471
0.0272471
10.2097
0.0272471
0.0272471
0.0279918
34.2377
0.314764
207.307
247.343
0.027245
0.937427
34.7726
0.265085
0.0334712
132.723
0.0272472
0.940478
2.23138
0.540967
16.285
0.0343538
90.5869
0.396414
0.0262533
28.2607
0.0272571
0.0272471
0.190593
0.0272457
3.16249
6.7039
146.487
0.0448187
35.375
0.80095
38.668
0.951272
228.115
0.0272428
0.0272471
0.0272467
399.241
0.0281297
0.027245
0.0337977
0.027228
0.0272472
0.027227
0.955251
0.0273646
0.034087
0.0272076
0.0272321
0.0274618
0.0272334
0.989564
0.0328222
0.0272798
0.948657
175.252
0.94485
0.0272345
0.945144
330.68
0.960632
0.0314472
0.0272419
0.0272245
0.032366
0.0908344
0.0343323
0.0272131
0.0344649
273.277
0.0272734
0.0272357
0.952948
0.0272471
327.557
0.032875
0.0272471
0.954352
0.0287138
0.0272308
0.0331808
0.0343477
0.95146
74.337
0.55518
0.0272521
0.942834
0.0383355
0.0272371
0.0272837
0.0372031
0.946619
0.0272471
0.0272465
0.0272022
0.927014
0.033493
0.947046
3.38285
460.359
205.229
0.95274
0.953981
0.0272349
0.0272417
0.0272467
31.4064
0.0272225
0.0337975
0.0538606
0.0307195
244.654
78.447
151.7
0.0272471
144.021
164.395
0.0272231
0.0272712
0.0368547
0.0273376
0.0272236
0.0272465
8.52696
0.0272448
0.0272608
0.0272433
0.0273675
212.812
0.207319
0.0272208
0.027248
0.951061
0.0272471
0.0272407
0.2782
0.950965
0.0329589
0.89851
0.0272133
0.0338259
33.4817
0.0272455
0.0272385
0.951552
0.0334398
0.0707081
0.0272329
202.099
0.956767
0.946503
0.0271126
22.8931
0.0274969
0.0272463
219.898
0.0331856
0.0272183
0.0272471
0.0275348
0.0272461
0.0274604
0.0272471
0.0661531
0.0272411
0.0272206
0.0273292
0.0282063
0.027241
0.0272679
0.0272354
0.0272464
68.4689
0.0274366
0.476596
0.941267
0.0272471
0.652675
0.831963
0.177232
0.412991
0.25662
124.995
0.159352
82.2092
0.0270833
0.00800932
0.0272471
0.114847
0.0272454
0.0272471
1.38544
0.0272374
89.7818
252.136
0.0277981
0.0272368
0.0272446
0.0272229
4.66658
0.0799989
0.0272466
0.926237
0.0276796
0.0272471
1.69469
0.0272248
119.476
264.021
0.0272478
0.0272471
0.0272305
0.0277013
0.0272529
64.5705
0.069298
66.7261
0.0272471
100.84
0.0272414
0.676933
285.427
109.352
75.5336
0.238145
0.0269704
0.0272471
110.197
120.238
0.0272471
0.0273698
103.353
0.0272394
0.0272352
0.0272471
106.658
0.951052
0.0272471
0.027247
0.0272471
1.08532
0.365816
0.0272133
0.0272356
0.0272401
0.0382702
0.0272423
0.0272637
0.0273229
0.617521
162.724
0.864259
0.0272603
0.205778
0.518493
0.0272388
0.027225
0.0296436
0.0353619
0.0273438
0.0272664
5.75376
0.0312675
2.4754
0.0272473
212.843
0.0338188
0.0272471
242.134
1.07368
0.954936
0.163014
0.947779
0.0272472
0.0272471
0.0272713
0.0272449
0.0282248
0.0273117
130.56
0.0272537
0.505106
54.5334
0.0272471
0.0277703
0.0272225
0.0272471
0.0663804
0.0272395
70.4233
0.0272471
0.0272471
0.0288115
0.949026
122.766
0.989629
0.0272471
0.449904
0.0272528
0.0272566
0.429846
0.373425
0.0272507
1.49413
1.1192
0.0272471
16.8444
3.40334
0.829656
0.493718
43.7051
0.281591
0.0670127
0.437386
0.0273147
0.566817
0.0272471
0.0272471
176.197
0.980535
49.1433
74.5884
98.6293
1.48798
0.0272471
0.0272983
202.269
0.606839
3.05477
0.0892197
0.981252
12.3305
69.7572
44.8984
234.265
0.0204185
52.7597
107.016
0.032412
56.246
4.13565
0.0150279
0.0335966
0.956147
0.0274355
80.7073
0.0349009
56.5011
417.324
0.0272365
256.347
0.0272471
0.0297653
0.60854
0.0278425
1.01918
6.64335
0.0301589
0.950216
0.0272252
0.0272562
0.950895
47.6059
0.0272471
0.868762
0.0271392
0.0272512
0.0288561
0.0332088
0.0272481
0.0272471
0.0272471
0.0272438
0.961482
0.0127477
0.0272464
0.0272586
0.0272371
85.1295
0.0272471
0.0273914
0.0273662
0.0272471