/*--------------------------------*- C++ -*----------------------------------*\
| =========                 |                                                 |
| \\      /  F ield         | OpenFOAM: The Open Source CFD Toolbox           |
|  \\    /   O peration     | Version:  2312                                  |
|   \\  /    A nd           | Website:  www.openfoam.com                      |
|    \\/     M anipulation  |                                                 |
\*---------------------------------------------------------------------------*/
FoamFile
{
    version     2.0;
    format      ascii;
    arch        "LSB;label=32;scalar=64";
    class       volScalarField;
    location    "0.25";
    object      nut;
}
// * * * * * * * * * * * * * * * * * * * * * * * * * * * * * * * * * * * * * //

dimensions      [0 2 -1 0 0 0 0];

internalField   nonuniform List<scalar> 
32842
(
0.000588748
0.000589415
0.000588654
0.000588651
0.000808339
0.000588651
5.82234
2.58858
0.000588651
0.000588651
0.680933
0.331625
0.000588649
0.000588651
0.000588206
0.000588671
0.000588651
0.000588651
0.000588471
0.000801388
0.000835036
0.000820713
0.000792161
0.000588654
0.000786238
0.000588651
0.000588651
0.000722725
0.412646
0.000588609
0.820975
0.469877
8.85938
0.000588548
13.0832
4.571
0.000843554
0.000588588
0.000588075
0.000588428
0.000588653
0.000832635
0.000588651
0.000588651
0.329441
0.000588636
2.27196
0.00058871
0.000823284
0.0691622
2.86415
0.000588651
0.585662
0.0815834
0.000588653
0.00315318
0.000588651
0.0257201
0.000588652
0.000588651
2.66417
0.5629
0.626299
0.000835407
0.000588581
0.85627
0.000588652
0.692636
0.434767
0.000589525
0.000715784
12.6322
0.494521
0.000588651
0.000588651
0.000586768
0.0879253
0.000588651
0.493469
1.10527
0.000805567
0.000588651
0.000588651
0.548831
0.770403
0.000588651
0.000588651
0.00280272
0.101234
0.000588651
0.00080838
0.000821018
8.11286
0.000588524
0.000588651
0.000588462
0.479703
0.000588257
0.712371
0.000588651
0.000588651
0.00092772
0.000590113
0.404438
0.490577
0.449972
0.832624
0.000591247
0.523313
0.000589107
0.000588651
0.000588651
0.0851446
0.000588651
0.000590336
0.000827139
0.538114
0.676604
0.000589907
0.000588617
0.000588651
0.000588651
0.0612929
0.000588654
0.000564805
0.488443
0.392749
0.000588482
7.83491
0.000588653
0.000588651
0.00059314
0.00114479
0.487972
0.00108974
0.000588679
0.000588626
0.0374435
0.000588567
0.000588516
0.526676
0.0005886
0.523378
0.0451474
0.000588586
0.000588633
17.7463
0.000588623
0.000588651
0.000588651
0.000594728
0.1692
0.000760956
1.87919
0.000588627
0.000588651
0.000588651
0.00058859
0.000588389
0.000588651
0.000588488
0.000588651
0.000788109
0.000588651
0.000588666
0.00058859
0.000588651
0.000588647
0.000589278
2.74239
0.0622411
0.00104406
5.75905
0.000588651
0.00084096
1.52285
0.000588645
0.000590422
0.000588651
0.000588651
0.000753433
0.000588651
0.000588651
0.000588651
0.541442
0.000588651
0.499764
0.000588651
0.000588404
0.000588651
0.000588651
0.0951611
0.426272
0.000588651
0.442783
0.000588386
0.000588569
0.000588408
0.478359
0.000588651
0.000588442
0.000588639
0.100891
0.572059
0.0180553
0.00207259
0.000588374
0.000834989
0.446359
0.000588361
0.000588728
0.000599493
7.05799
5.99265
0.000588651
0.000588651
0.000588298
0.000587595
0.000588716
0.000588673
0.0847888
0.000588651
0.000588651
0.000588608
0.00094437
0.375262
0.000588653
0.461823
0.000588605
3.57706
0.000588651
0.000588651
0.000588016
0.000588651
6.28229
0.000801984
0.000809588
8.63355e-05
0.000588156
0.561096
0.0149036
0.000588652
0.000588495
0.469141
0.000588588
0.000588679
0.593106
0.000588652
0.000588651
0.000588654
0.000588651
0.000588651
0.000588616
0.479338
0.000588296
0.000588651
0.000588651
5.21196
0.000588651
0.00058862
0.000588651
0.000588651
0.000588651
0.000588653
0.36597
0.000588651
0.000588651
0.00058865
0.000588601
0.000588653
0.000588651
0.48218
0.000588651
0.370562
0.000588651
3.38314
0.000588477
0.000920123
0.000588651
0.000588413
0.000588651
15.0331
6.63785
0.000588651
0.000588639
0.00208647
4.42785
0.000588651
0.000834917
0.000588651
13.3729
0.000588653
0.432578
8.25344
0.11554
0.000578146
0.42922
0.000588651
0.000588383
0.000784262
1.09888
0.000588654
0.000588651
0.000588655
0.000588651
0.000588651
0.000588651
0.000588651
0.000588578
0.566708
0.000588653
0.000588651
0.55759
0.000588651
0.000588651
0.000588651
0.000588287
7.24488
0.000588651
0.000588598
0.000588381
0.0385196
0.000588651
0.000662658
0.000588653
0.000588651
0.000588421
0.000588653
0.000588757
0.000588651
0.000588685
0.504535
0.000588651
0.000588651
0.000588649
0.000588651
0.940127
0.436458
0.000588651
0.000588651
0.000588643
0.000588661
0.000404544
0.000588651
0.564497
0.000588651
0.000588651
0.456148
0.64964
0.518784
0.00059032
10.6481
0.000588475
0.478044
0.000588651
0.000588645
0.000789121
0.000588366
0.000588651
0.000587738
0.000588651
0.000588651
0.000588338
0.331115
0.000588651
0.000588535
0.000588651
0.000588651
2.49618e-05
0.000776001
0.000588651
11.809
0.000588649
0.00101094
0.000588651
0.525647
0.000915484
0.000588651
0.000615343
0.000791246
0.00058848
0.573604
0.490666
0.000588513
0.000588123
0.000588654
0.000588651
0.000588651
0.000588651
0.000588648
0.000588651
0.000588607
0.000588651
0.000588651
0.000588523
0.000588651
0.000588618
0.000588509
0.00058839
0.000588678
0.179158
0.000588651
0.000588698
0.000589265
6.46486
0.000588634
0.000588462
0.00104112
0.000588651
0.000815982
0.387159
0.00058865
0.000588651
0.000588535
0.000588651
0.00058859
0.000588725
0.000588632
0.000588406
11.6253
0.000588465
0.49414
0.000588651
0.00083858
3.53195
0.000588651
0.000588634
0.000588651
0.000566063
0.000588653
0.000587339
0.000588651
0.000588651
0.502547
0.000804293
0.95626
0.000588723
18.4471
0.089329
0.532443
0.000832871
0.152238
0.000848414
0.542507
0.000588654
0.000588708
0.000685963
0.000588653
0.000770074
0.0247886
0.000588654
0.000588194
0.000589363
9.23972
0.000756953
0.000588457
0.000588549
0.000816416
0.000588386
0.000589645
0.000588473
0.00084989
0.000588651
0.000588652
0.000588651
0.00058875
0.000588643
0.546185
0.000588645
0.000589178
0.000588651
0.000853703
0.000811499
0.000588651
0.000588718
0.549156
0.510374
0.000588651
0.000588653
0.000588651
0.000588651
0.000806296
0.000588685
0.0391389
0.547831
0.000588651
0.000588653
0.698179
0.000586781
0.000588651
0.00087944
0.000590191
0.000691794
0.000595394
0.518636
0.000838487
0.416415
0.550179
0.000594853
0.000588556
0.000823426
5.08657
0.00058869
0.515209
0.000827331
0.709521
0.000757802
0.000588651
4.69089
0.000877626
0.00058865
0.496622
0.000588529
0.485484
0.000588642
0.000588653
0.000933498
0.00101136
6.62422
3.38473
0.119955
1.37954
5.7086
5.1397
8.82343
0.531705
0.000588728
0.000588651
0.000588771
0.54844
0.100937
0.639573
4.50841e-05
0.000588565
0.000588651
0.000762027
0.146853
0.000588655
4.46247
0.0194193
0.000587096
1.38357
0.000486484
7.37261
0.000588653
0.000588651
0.000588306
0.522699
3.63874
0.000588651
0.000857038
0.000588566
0.139797
0.432884
0.000588596
0.00058873
0.000588651
0.000588651
0.028941
0.00567772
0.000588651
0.000588651
0.00058862
0.480054
0.0493277
0.686766
0.000588667
0.000588651
0.000588651
0.477903
0.556445
0.41751
0.287226
0.426471
0.000588651
1.18037
0.427281
0.000588616
0.875258
0.000588652
0.000807921
0.000588651
0.000588636
0.000812266
0.000791637
0.000588651
0.000588633
0.000588518
0.000588474
0.554972
0.000840268
0.000588653
0.000588414
0.747966
0.000588651
0.00144579
0.729149
0.657704
0.000588345
0.000588651
0.259248
0.473355
4.77754
0.000588422
9.24735
0.789635
0.0995149
0.000592004
0.13435
0.000588653
0.000588651
0.000588654
0.000588651
0.000588651
0.128304
0.000817376
0.000588648
0.000588651
0.000588628
0.000588651
0.000588073
0.000588651
0.000588384
0.11994
0.679155
0.000588467
0.000588651
0.0636036
0.164824
0.0695892
0.000588369
0.130668
0.000588651
0.000588651
0.000588745
0.315525
0.496091
0.000588651
0.000797656
0.000588651
0.0595432
0.000588651
0.000588651
0.000588653
0.000588655
0.207715
0.000588651
0.000588651
0.0226099
0.110788
0.000584036
0.000588652
0.000588651
0.436607
0.775131
0.000588651
0.501244
0.000800015
0.000588651
0.000588651
1.8763
2.51897
0.000588651
0.701117
2.37012
0.0005886
0.0252221
0.00058863
0.000588651
0.000824351
0.000918816
0.000612014
0.000588767
1.28024
0.000588651
0.0048806
0.000588651
0.000588651
0.556768
1.73534
0.0589153
0.105777
0.000588651
0.000588652
0.000774857
0.000794966
0.755944
0.492039
0.801306
3.53003
0.00058905
0.000589534
3.01902
0.000588651
0.18989
0.000588146
0.000588573
0.613586
0.509936
0.000588565
0.0005888
0.000588651
0.000588651
0.000588224
0.000588651
0.000588583
0.000588651
0.000588651
0.569546
0.000588651
0.000588539
0.000588651
0.895834
0.000588651
0.000588295
0.00058871
0.426121
0.000588651
0.000588595
0.000586063
0.000588652
0.000588364
0.000588653
0.000594832
0.000588512
0.000588642
0.000588529
0.000588652
0.000260117
0.000588357
0.000847728
0.000677614
0.000850816
0.000588651
0.000907524
0.00109302
0.413603
0.000588582
0.000588624
0.000841709
0.0796354
0.000588651
0.379701
0.000792505
0.000588651
0.000588651
0.000594915
0.000588583
0.000588703
0.580188
0.000588651
0.000588651
0.000588544
0.000834504
0.481844
0.000588646
0.000839782
0.000588651
0.00077357
1.86814
4.9804
0.000778727
0.000588369
0.648834
0.000588651
0.000588651
0.00058865
0.000588642
0.000589045
0.000588268
0.141784
0.000588651
0.00059204
0.58531
0.000876332
0.000588624
0.000589291
0.000588651
0.646275
0.00110437
0.528582
0.000588476
0.426247
0.384175
0.000816558
0.000588653
0.000761311
0.000588444
0.000852442
0.000588579
0.000588651
0.000828657
3.54351
0.473326
0.000588337
3.98409
0.0005885
0.400409
0.000588675
0.000588651
0.000588651
0.000588651
0.00058806
0.000588699
0.000588358
0.000588651
0.000588651
0.000588439
0.000588398
0.000588644
0.480526
0.000589466
0.0922148
0.000588635
0.000588674
0.00081125
12.3435
0.000588674
0.000588453
0.000829612
0.000588651
0.000589471
0.000588655
0.000937662
0.6463
0.000588651
0.000588651
0.000588859
0.000588522
0.000588651
0.000588901
0.000588651
0.000588651
7.0593
0.000588649
59.8468
0.000588504
0.000588634
0.000588816
0.000589041
0.00079228
0.00058849
0.000588651
0.000588651
0.000588651
0.138857
0.000588651
0.000588707
0.520897
0.000588367
0.485792
0.000588651
5.20054
0.000588367
0.000588479
0.660632
6.55634
0.000588125
0.000588441
7.76625
0.000944955
0.00058865
0.000588487
0.000588651
0.000588624
0.000588602
0.478182
0.478971
0.493583
0.000588651
0.531558
0.000588651
0.000588251
0.000587851
0.000840575
0.000679699
0.000588651
0.000588649
0.000588651
0.000588522
0.000589929
0.000588651
0.000588312
0.000588323
0.000589121
0.00674995
0.00091556
0.000588651
0.104469
0.176781
0.000588645
0.000378794
0.0679058
0.000588651
0.000588651
0.000588584
0.373056
0.000588651
0.000588651
0.46439
0.000822532
0.000588651
0.000588651
0.000588651
0.000588598
0.000682592
0.121124
0.000588651
0.000588648
0.41196
0.000588651
0.00058864
0.750096
0.000588476
0.000588651
0.000588654
0.000588651
0.474371
0.000588387
0.000588417
0.000588651
0.00058865
0.000944791
0.000588651
0.411463
0.000809641
8.68361
0.000588651
0.000588651
0.000588649
0.000588408
0.000588607
0.000588651
0.0620787
0.371729
0.000753273
0.00473232
0.000588651
0.000778461
0.000588651
0.000588651
0.000588457
0.000588651
0.000588607
0.000588651
0.000588651
0.00058865
0.000588658
0.000588651
0.279598
0.000588676
0.680227
0.000588567
0.565831
0.549626
0.000588651
0.000788015
0.553404
0.596356
2.99173
0.00476652
0.000588619
0.000588654
0.000588651
0.000588654
0.0748327
0.000588653
0.119688
0.031241
0.0312704
0.0288166
0.000682066
8.88469
0.000588651
6.23103
4.20746
0.000588651
5.48226
0.000616779
0.000588551
0.000588651
0.000588651
4.0655
0.000588409
0.510202
0.000818162
24.2515
0.358847
0.576573
0.00102367
0.000588651
0.000588561
0.000588408
0.000588319
0.000589127
0.000588651
0.00058865
0.000588676
0.0645467
0.000892271
0.000588465
4.62577
0.000588567
0.000588532
0.00058857
0.00058853
0.744321
0.1198
0.000588487
0.000588487
0.000588598
0.503464
0.0677864
0.000588456
2.61384
0.528494
0.0251692
0.00058867
0.000588667
0.913892
0.571314
0.000588182
0.000588649
0.000588653
0.000588669
11.1385
0.00058854
0.375009
0.000588437
0.000588651
0.000588647
0.000588539
0.000625205
0.0311029
0.000588534
0.000588653
25.8606
0.0900512
0.459293
0.000588415
5.40069
1.80919
0.000588646
0.000588653
0.000588388
0.665157
11.5772
0.00058865
0.000740935
2.82756
0.000588567
0.000682445
0.966331
0.0005885
0.000588651
0.000588652
0.000588651
7.95267
0.000588405
0.000588416
0.000101591
27.0587
0.000728751
0.00066967
0.0279398
0.000588637
6.4606
0.359983
0.00058863
0.631233
0.295977
5.0727
0.000358415
4.69339
4.34706
0.000588423
1.26909
0.464043
0.000316275
0.000588657
0.000588068
0.000588647
0.000588548
0.000588322
0.000588618
0.000588368
1.41769
0.000588651
0.000588651
0.00661853
0.000588651
0.000588423
1.89682
0.0765404
0.000891672
0.000647822
0.000588652
0.148719
15.0484
0.464407
0.000588669
0.000588793
0.000588696
0.13009
6.22712
0.000930971
0.000590227
6.23858
0.00058855
0.000260537
0.000589198
0.000588635
0.195913
0.00088581
0.000588709
0.0142214
0.000588635
0.000588395
0.102097
10.5483
6.65527
0.000588397
0.000588599
0.000588651
0.000588371
0.00059113
0.000594145
2.56373
0.000588651
0.000588651
6.31856
0.000588728
0.000588529
0.0690161
0.000588651
5.48563
6.86354
0.000588651
0.000588662
6.47421
3.25287
5.0489
10.6702
0.000588676
8.78023
0.523035
0.000987298
8.72303
0.000593983
0.602961
0.000588226
0.000588649
0.000590517
0.150327
0.00109884
0.000588651
0.058478
0.455919
11.4642
0.0998282
0.000588651
0.0442222
0.319171
0.121808
0.000588651
0.000588649
13.7904
0.000588742
0.000588993
0.172937
0.000593642
7.8208
2.50171
0.00138427
0.000665392
0.000588527
0.000588447
7.71514
0.253022
0.000588653
0.000589422
0.000588651
0.184311
0.000588121
0.204379
5.20237
0.00058982
0.226255
1.70905
0.0160188
5.95574
6.23018
1.39625
0.000590416
0.550085
4.37535
0.00598175
0.00074973
0.000588651
7.63094
0.00058856
0.00058999
0.00116737
2.92918e-05
0.475408
0.189813
0.000940121
0.577798
3.1472
0.000588559
9.99562
0.00101847
0.581404
1.14271
0.0005885
2.95166e-05
0.223493
6.70744
0.00103436
0.000588652
0.579634
0.000588651
0.000828312
1.94397
0.000793708
0.000589298
0.463859
0.0892839
0.000588437
9.78676
0.000588651
0.000588644
0.000588477
0.000588517
0.162455
0.000779801
0.000588651
0.100142
0.370829
0.000588615
0.000589129
39.7932
0.000588512
0.000588651
0.000589113
3.11685
6.38606
0.000588269
8.739
0.000588651
2.56686
0.223279
0.000594896
0.47697
1.10151
0.0179477
0.00162305
0.000589454
0.326666
0.681177
0.210553
4.97078
11.7097
0.00083689
3.73148
0.000588651
8.2241
0.000588411
0.458353
0.000588565
6.01616
0.000588625
0.000827093
0.000711477
0.218217
0.306181
0.000821586
0.000588658
7.51949
0.434199
0.000588368
0.000588651
1.41605
0.0481004
0.000588652
0.617754
0.000588609
0.624406
0.532315
0.621338
0.000588628
0.000588563
3.96917
1.61276
0.000804322
0.000588962
0.00091515
0.000588528
0.000588551
0.154399
0.000588651
0.492213
0.440619
0.000588935
0.000238427
0.000588651
1.36257
0.862471
0.000588651
0.00114539
3.58958
0.000588652
0.000588651
0.000588452
0.157528
0.000588651
0.000590456
0.000588052
0.000885409
0.000590249
0.000591476
0.000588803
0.000588651
0.00058838
0.000588668
0.000588651
0.000588216
0.000588442
0.000588383
0.000588408
4.84233
0.000589518
0.000588578
3.14876
0.000581078
0.000588567
0.000588572
0.000590118
0.000588651
0.000858064
4.89455
0.000588562
0.000588841
0.000590321
0.000598626
0.102342
0.251934
0.0010556
0.397917
6.62073
0.000588709
0.000588502
10.8176
7.42581
0.000812431
0.620126
0.000588987
0.000588614
0.762607
0.000817379
5.75514
0.000898964
0.000900198
0.00074998
0.000588502
6.53947
0.000588165
0.000588654
0.00096774
6.66823
3.25423
0.364728
6.3107
0.000794123
0.000776392
0.00272864
0.000587651
3.43151
9.13961
0.000785522
0.997495
0.000588647
1.69854
0.000588525
0.000599223
0.000588677
0.625271
0.000588651
7.58132
0.000589488
0.000588705
0.000950658
4.73775
0.108626
0.000596585
0.000588651
0.000588593
5.86792
0.000588726
0.000588651
0.463944
0.000588651
5.77494
0.000588288
0.000589284
0.000590332
0.000588529
0.000588499
0.000588651
3.32764
0.000588377
0.0127205
0.199743
0.000589061
0.000588683
0.000588684
0.000588394
0.000588775
0.000588362
5.001
0.000588351
0.000588343
0.000588651
0.000978633
0.377703
0.000588527
0.00058869
0.000588651
4.96543
0.000588652
0.000588531
0.00058861
0.000588545
0.000588386
0.565335
0.000588355
0.000588626
0.000588564
2.6717
0.0005911
0.000588632
0.000588092
0.55882
0.000589778
0.000590829
0.00051854
0.000588655
0.000590699
0.000588578
5.76456
0.000588647
0.00058848
0.000555156
0.338814
10.5728
0.000588627
7.50409
7.10842
6.13489
0.000588624
7.28214
0.000560116
0.000777289
0.000588608
10.478
9.11524
0.000588407
0.000588654
0.000588686
0.000588552
5.80089
11.5646
0.000588645
0.000588651
0.000573684
0.000588568
0.000589892
0.677158
0.00058863
3.89195
10.0434
0.000588652
0.00059823
0.176602
0.000594948
0.000582219
0.000588652
0.000588707
0.454122
0.0005885
6.20614
0.000588395
0.000591503
0.000588662
0.599066
0.000937661
0.000588648
0.000588652
0.000588651
0.000588651
0.000596551
0.000588188
7.69433
0.00058865
0.000515342
0.000542608
0.00117555
0.000588488
0.10483
0.625537
0.000588535
0.14555
0.0449016
0.00106487
0.000588644
0.000588651
0.534872
7.42654
0.122345
0.0437377
0.000588599
0.000588651
0.00117395
0.000588402
0.00604943
0.00058865
0.000588283
0.000828901
0.00921652
0.000588601
0.000588651
4.20323
0.000588651
0.00058838
0.000588651
0.000588651
1.0923
0.563928
8.41899
0.000588651
0.000588364
0.000588416
6.04209
0.000595677
0.679745
2.08095
0.000898876
0.000588361
0.000588569
0.00058864
0.000588651
4.63053
4.40683
0.000588651
0.000588612
0.000588367
0.000588651
0.473221
0.000588651
0.531267
0.000588651
0.55642
0.000838022
0.852273
0.000588652
0.000588651
0.000588651
0.000589974
0.000588421
0.000589169
0.000588651
0.454715
0.000589771
0.0083704
0.313761
0.281672
0.00058865
0.000588498
0.000588654
0.000588651
0.000590384
6.28433
0.000588651
0.000588149
0.000588499
0.587715
0.00843588
6.31057
8.35028
7.50413
0.501885
0.00119937
13.172
0.000584232
0.445036
0.00058824
0.000586988
0.00108318
0.146617
0.662835
0.00232222
0.00058879
0.501806
1.13013
0.000588651
0.000588651
0.000589807
0.000588333
0.000588507
0.000588345
0.000833809
0.444271
0.000588653
5.44048
1.16891
0.000588651
0.000588651
0.000588651
0.000588545
0.000588651
0.000588651
0.000588607
0.000910533
3.34546
0.000589533
0.000476591
2.78917
0.0005908
11.3504
0.537724
0.000588505
0.000819653
0.000121162
0.000592176
0.000818592
0.000848508
0.050964
0.660779
0.00058983
22.8898
0.000588651
0.000588651
0.000395743
0.000588378
0.000588326
0.000588401
0.000588652
4.80357
0.000588653
0.000588323
0.000588507
0.000588651
0.000588447
0.000588642
0.000588553
0.000589865
0.605632
0.000588651
0.000172611
0.000588608
0.000601906
0.00058888
0.000588651
47.0453
0.000589403
0.000589023
0.39687
0.000593273
0.00058842
0.000587241
0.000613173
0.00514979
0.307134
0.000594226
0.000588651
13.46
0.000588621
0.000588485
0.000588594
0.0538749
0.00058859
0.000588368
0.000588623
2.45956
0.000773848
0.000588623
0.000824972
0.000588552
0.615985
0.000963678
0.000588329
0.000155102
0.000588653
0.00058865
0.000588416
0.000588651
0.000588651
0.000588681
0.000846896
0.000588651
0.000588506
0.000594529
0.615533
2.94238
0.000588653
0.000591883
0.000883908
0.000593779
0.0698205
0.438932
0.0150821
0.0005955
0.000590043
0.000840592
0.000588648
0.000594414
0.000588654
4.13346
0.384672
0.000834157
0.48796
0.709783
0.00058832
0.000588654
0.779906
0.000588651
0.000588102
0.0400821
0.000788513
0.000588545
0.000588638
0.000599879
0.000588484
0.000588466
0.000588617
0.000588651
0.000588374
0.616847
0.000588547
0.000588651
0.000588342
0.000588337
0.000588651
0.123906
0.285407
0.00090258
0.000588461
0.000800363
0.00160099
0.000588519
0.000588651
0.000588451
6.96096
0.484285
2.2355
0.000588495
5.80695
0.000588612
0.000588418
0.209155
0.405782
0.00058842
0.000589597
0.000588651
0.00058864
0.000588723
0.000588341
0.000588426
0.000588422
0.0123685
0.0144091
0.689434
0.000588645
0.000588657
11.5811
0.000588654
7.2735
0.000588651
0.000793651
0.0005882
0.000588651
0.000588651
0.00120885
0.10518
0.000584987
0.000586216
0.000588651
0.000588651
0.000301292
0.000588384
0.806149
0.000797361
5.38666
0.428927
0.000588651
6.17621
0.000588651
0.000588491
0.000588651
0.000588651
0.000588371
0.000588277
0.57814
0.000588641
0.00114961
0.000588651
0.000589199
0.000588568
20.9868
0.000588379
0.000588385
1.68339
0.568
0.000588651
0.000588511
0.000588607
0.000588384
0.0190808
0.000588648
0.566577
0.000588926
0.000588365
0.00313867
7.09142
0.000588678
0.000569136
0.000588437
0.000595212
0.000588651
0.000588651
10.6981
0.000588443
0.000588651
0.00103137
0.000588651
0.000588376
0.000588155
0.000588653
0.000589628
0.00139065
0.000588648
0.000591124
0.0318075
6.72181
1.53793
0.000588652
0.000588651
60.1961
0.000588651
0.00059093
2.98984
0.000588142
0.258167
0.310961
1.55595
0.533035
0.00058819
0.000588482
0.000588682
0.000588651
0.000588435
0.474497
0.000588554
0.457037
0.00058841
0.027055
0.00682476
0.00058866
1.92465
0.000588544
0.000588591
0.000653628
28.3308
0.664822
0.000588651
0.724567
0.000588585
0.000588651
0.000588651
0.000588944
0.00058856
0.000588651
5.50315
0.487669
0.000590407
0.000588368
0.000590748
0.000588651
9.91334
0.000588651
4.65086
0.000588651
0.000588651
0.000586867
0.000876787
0.00058841
10.8131
5.88949
0.000588635
0.000588711
0.000588651
3.55631
0.000588604
0.000588651
0.000588689
3.94312
0.000588513
0.000588651
0.000588653
0.000586291
5.92584
1.2633
4.54841
1.12607
14.8965
0.000588474
0.00058887
0.000589879
3.04426
0.000588548
0.000588703
4.56292
0.000665795
0.11132
0.000588429
0.000588295
0.515225
0.473462
4.92917
0.000588651
0.000588362
5.58897
43.6635
0.00421762
6.87356
0.0764621
0.000588651
0.000588933
7.87843
0.000588569
0.000588651
0.000809375
5.49177
0.00047734
5.0047
0.529051
5.71237
0.000588575
0.217794
5.02611
0.000588435
0.000588183
6.94655
0.00058973
0.000588684
0.000588651
0.000588587
0.000593496
0.000832143
0.000590094
1.22764
0.000588297
0.000588651
0.000588367
0.000586117
0.00074584
0.0128162
0.000588697
0.000588606
0.000588643
1.15331
5.81403
0.000588535
0.000588647
0.000570943
0.00058866
0.000595383
0.000588651
0.000588634
5.16912
0.000591265
1.09643
0.000588651
6.66671
0.000588519
0.986089
0.384194
7.22095
0.00058865
0.000592936
0.635069
0.000588374
0.000588651
0.000588454
0.000588631
0.000588969
0.000327113
3.59028
6.72912
5.1164
4.44388
0.000800998
1.75082
0.00080853
0.000885944
0.00058865
0.000588648
0.000804613
0.000588504
0.000768674
0.000588649
0.000590189
0.000588577
0.000793698
0.000588604
0.000595212
0.000859053
0.000588651
0.000588651
0.000588665
0.00058846
0.000588514
0.000588651
0.368928
0.000588628
0.000588339
5.47707
0.000588404
7.20303
6.44319
0.496436
7.41807
0.488047
7.08706
0.539724
0.000588651
0.000588651
0.000588497
0.431652
0.000588651
2.29231
0.000588708
0.000589381
0.000588651
0.000588597
0.000588557
0.00058869
0.00058852
0.000580609
0.000588615
0.571307
0.000588431
0.000588651
14.1307
0.000591684
0.00058846
3.23995
0.412421
0.000588649
0.000588617
0.000588651
0.709019
3.57181
5.31008
10.0398
6.30397
0.000588504
0.000588651
0.000588651
0.000588948
0.00058833
0.000588651
0.00077764
0.000588651
0.000588651
0.000588651
0.000589825
0.000588572
0.000588706
0.000588606
0.000588807
2.34615
3.59544
6.10577
0.0163418
0.13799
0.000588475
0.000588597
6.8551
0.000572208
0.000588651
6.80411
0.000815164
0.000588199
0.000588545
0.00121655
0.921834
0.0717636
0.000588522
0.000588651
0.000855541
4.57529
0.000588651
0.000588214
0.000588651
0.014458
4.32296
0.000590175
0.000909422
0.000588649
0.000588653
0.000588651
0.000588636
0.000588632
0.000588568
0.000588456
0.000588414
0.000588627
0.000588597
0.000588583
0.000588506
0.000588615
0.000579941
0.000588649
0.0165546
0.0233347
7.8999
3.11142
0.495066
0.535801
0.000136782
0.103321
0.000588651
0.000588771
0.000585449
0.0688004
0.251218
0.422675
0.000596836
5.37355
4.88888
0.845274
1.89568
0.000793472
0.000280905
0.000591804
4.81059
0.00760324
7.68148
0.000588398
0.000588627
0.000588559
0.000588379
0.452268
0.0129333
0.00476128
1.68093
0.000590994
0.00058859
0.000588725
0.000588379
0.0702661
0.000718306
0.000588882
0.000588774
0.715614
0.000286424
0.000588649
0.000588575
0.000586745
0.000588376
0.000588651
0.000588465
0.499111
0.000588652
0.000588651
0.000588644
8.59539
0.000590369
0.00060513
0.000596485
0.00058812
3.58522
0.00058847
0.000590945
0.000588628
4.85674e-06
0.331096
0.485674
0.000588532
0.00251257
0.000588552
0.000588549
10.541
0.851892
1.97524
0.165594
0.648763
0.000588651
24.1729
0.00058865
0.000588651
0.000588651
0.000589684
0.000588651
0.145516
0.000588397
0.232179
7.38309
0.000588558
0.000588553
0.00123109
0.000590591
0.579473
0.000588651
0.00239726
0.000588651
0.000589629
6.03511
0.000588432
0.000588696
7.94756
0.000588385
0.000588386
0.000588449
9.9011
4.43024
0.000588382
0.568394
0.000588388
0.000588252
0.000588495
0.000588654
0.000588349
0.000588682
0.000588617
0.000588651
0.000588147
0.00058818
0.00819336
0.000588653
0.000305578
0.00058902
0.00166788
0.000830153
0.135995
8.81342
0.000588651
0.000588651
0.00058852
20.1474
17.4586
0.000588651
0.000588314
2.28465
8.88705
0.000596937
1.18313
0.90215
0.00058877
0.424256
0.442351
0.000590923
0.00058864
0.000588328
0.000590291
0.585586
0.000580439
10.4141
0.000588651
0.000588594
0.584843
22.5675
0.000589763
9.70887
10.8567
0.000588706
0.000589244
0.000956928
0.000588576
11.0818
0.000879577
0.000837544
0.000947673
0.000588502
0.000588652
0.64077
0.00207761
0.000589328
0.000588614
0.000588595
0.000588577
0.000588651
0.000588651
0.466545
0.65091
0.266786
0.000588651
0.000588703
0.000588651
0.000588421
0.000589831
0.000588403
0.000589472
0.000591905
0.00590085
0.000588459
0.372249
0.465191
0.000588651
0.000588775
0.000588577
3.39942
0.000588651
0.00059352
0.0488888
0.567642
0.000588474
0.000588651
0.0005884
0.000588568
0.000590434
1.34865
0.000592372
0.000588441
0.131242
5.34115
0.0005882
4.4489
0.00058651
0.000606297
0.000615785
0.000588435
0.901754
0.000588263
0.000588262
0.000588152
0.00058981
0.000590189
0.000589796
0.000876205
0.000590522
0.000774109
0.000590459
0.000476191
0.000591556
0.000588268
0.000590332
0.000589002
0.00095648
0.415671
1.22403
0.000595155
0.000593527
0.000819027
0.000588615
0.00093079
0.619917
0.667445
0.000885979
0.20156
0.000588424
0.0011702
0.00212385
0.000588651
1.77077
0.8925
1.59818
0.00087984
0.000853877
0.313387
0.000588141
0.000587534
0.000647302
3.95444
0.000582882
0.000588549
0.0119207
0.000589422
0.000588478
0.000900604
0.129029
12.3333
0.000588372
0.315193
0.000588524
0.314161
0.000588433
0.000588367
0.74205
0.000588795
0.00098328
8.4295
0.000535987
0.000891866
7.9775
0.000591249
0.0683084
0.000588488
0.560445
3.36818
0.000777463
0.000588753
0.00056645
0.341423
5.95096
2.35613
0.000588614
0.000588214
5.74541
0.000588508
0.000588195
6.6353
3.18349
0.000949797
0.00058814
0.000588602
0.000588364
0.554849
0.000588367
0.000588565
0.000588651
0.087014
0.00058899
0.000588651
0.000604676
0.00105078
0.000588631
0.000588538
6.96812
5.65841
0.000588634
0.000588395
0.633021
0.089794
0.000589134
0.263562
0.000774336
0.00101753
0.0236874
0.000588591
0.000137737
0.000793328
0.000588433
0.000588472
2.98976
0.0005205
0.948568
0.00058858
20.4778
0.106933
0.00360535
0.357044
0.000558606
0.970229
8.92538
6.97856
0.354743
4.60047
0.497697
0.000588511
0.000589674
0.516876
0.000588613
0.000588395
0.472852
0.11609
0.000588602
0.000588909
0.000588505
0.000588456
0.000843334
0.46917
0.000588635
0.0604877
0.000588111
0.000588507
0.37829
0.589019
5.73583
0.000590402
0.713492
10.5024
6.41996
12.1553
0.000588654
0.000588151
0.000588474
0.000588179
0.000787442
0.000975629
0.000588146
0.000588557
5.19236
3.83699
0.000909821
20.1346
0.469645
20.5341
0.000814114
5.18902
0.000589093
5.81793
0.000832814
0.475225
0.00058845
0.000588651
2.32291
0.000588651
0.000588652
0.000588583
0.000588651
0.000588651
0.00078643
0.467185
0.00719493
0.000588651
8.24687
6.94346
0.000783013
0.000588651
0.000588651
0.000588488
0.000588435
0.0410055
0.00058839
0.650942
0.650167
0.000588653
0.000588651
8.1169
9.85197
0.904105
0.581725
0.000589323
0.000867536
0.541448
0.000588651
0.000588651
0.000588404
13.638
0.000588651
0.000588651
0.000588651
0.000588651
0.000818987
0.000588651
0.000590522
10.3032
0.00068443
0.0010807
0.00058782
0.495561
0.553726
8.91058
0.000226768
0.000588651
0.810575
0.000588649
0.000588653
0.000588653
0.641798
0.000588651
0.00083771
0.573753
0.000588651
0.000588651
0.446016
0.000588654
0.000588651
4.53812
0.58205
0.000591704
0.588847
0.000588651
0.000588651
0.000588651
0.000588651
0.000588651
1.25255
0.000588651
0.815071
0.000810015
0.000588651
0.000588651
0.534418
0.000588648
0.42909
0.000802332
0.000588651
0.000588651
0.000588653
0.000588651
0.000775504
0.490177
0.000588651
0.000829004
0.503113
0.000588651
0.000588651
0.000796493
0.000588653
0.000588652
0.000802603
0.000788444
0.000588651
0.000588653
4.062
0.45057
0.000821673
0.458815
0.558311
0.000596657
0.592209
0.000588651
0.000588651
0.000588651
0.000588651
0.000588651
0.00059117
0.0232204
0.000588654
0.000794227
5.35979
0.000815995
0.00058902
0.000588651
4.11104
0.0354102
0.000811995
1.51651
0.000588651
0.0965397
0.000588651
0.000588651
0.000588651
0.000588653
0.417491
0.000588654
0.558107
0.000588652
0.000588651
0.000588651
0.000588651
0.000822335
0.000774539
0.461567
0.733858
0.000588651
0.000588651
3.80654
4.5474
0.000588651
0.00058865
2.60613
0.790348
0.00059501
0.579819
0.000590504
0.000588655
0.000588651
0.000588651
0.000588651
0.000783301
0.614163
0.660493
0.000588652
0.000588651
0.000806915
0.000588923
0.458576
0.000588538
0.000588651
0.000588577
0.000830701
0.000792123
0.000824434
0.000588651
0.000770814
0.540803
0.000588612
0.00058848
0.000583504
0.535656
0.000589087
0.000588651
0.000588217
0.000588381
0.000588651
0.530831
0.000875965
0.000588653
0.000588651