/*--------------------------------*- C++ -*----------------------------------*\
| =========                 |                                                 |
| \\      /  F ield         | OpenFOAM: The Open Source CFD Toolbox           |
|  \\    /   O peration     | Version:  2312                                  |
|   \\  /    A nd           | Website:  www.openfoam.com                      |
|    \\/     M anipulation  |                                                 |
\*---------------------------------------------------------------------------*/
FoamFile
{
    version     2.0;
    format      ascii;
    arch        "LSB;label=32;scalar=64";
    class       volScalarField;
    location    "0.25";
    object      p;
}
// * * * * * * * * * * * * * * * * * * * * * * * * * * * * * * * * * * * * * //

dimensions      [1 -1 -2 0 0 0 0];

internalField   nonuniform List<scalar> 
32842
(
101381
101724
101325
101325
101325
101325
95715.3
103078
101325
101325
122273
110723
101324
101325
101325
101267
101325
101325
101238
101325
101325
101325
101325
101325
101325
101325
101325
101325
106329
101298
101351
101325
109341
101258
108546
105134
101130
101259
101160
101176
101325
101325
101325
101325
101249
101315
102887
101359
101325
106548
109679
101325
101298
104425
101325
101391
101325
105166
101325
101325
110609
101266
101325
101325
101275
101840
101325
101214
101325
101262
101325
101870
101325
101325
101325
101281
105681
101325
101325
100460
101325
101325
101325
101325
101325
101325
101325
101435
107270
101325
101325
101325
102128
101325
101325
101198
101325
101325
101325
101325
101325
101144
101595
101822
101325
101321
105770
101801
101313
101253
101325
101325
101384
101325
101771
101325
101325
101498
101757
101300
101325
101325
107026
101325
101477
101325
101073
101215
101035
101325
101325
101497
101177
101103
101245
101294
101399
101548
101266
101228
101324
101292
101325
101636
101275
101313
108934
101307
101325
101325
101352
101090
101325
100774
101244
101325
101325
101285
101146
101325
101214
101325
101325
101325
101249
101285
101325
101322
101312
108470
101844
101286
101944
101325
101325
101529
101321
101449
101325
101325
101102
101325
101325
101325
101325
101325
101282
101325
101161
101325
101325
101299
101325
101325
101325
101153
101271
101167
101325
101325
101187
101194
101366
101180
104724
101347
101140
101325
101325
101133
101368
101244
101289
101402
101325
101325
101093
101091
101363
101305
101591
101325
101325
101293
101307
101232
101325
101325
101289
100728
101325
101325
101158
101325
101306
101325
101325
101502
101003
101325
105576
101325
101219
101374
101279
101131
101325
101325
101325
101325
101325
101325
101272
101325
101093
101325
101325
101474
101325
101305
101325
101325
101325
101325
101325
101325
101325
101324
101224
101325
101325
101325
101325
101325
101325
101992
101209
101045
101325
101165
101325
101277
100241
101325
101308
101399
101692
101325
101325
101325
111207
101325
101325
101083
105705
101707
101325
101325
101150
101325
102428
101325
101325
101325
101325
101325
101325
101325
101278
101325
101325
101325
101325
101325
101325
101325
101088
101955
101325
101291
101147
107059
101325
101325
101325
101325
101173
101325
101389
101325
101342
101325
101325
101325
101324
101325
101325
101325
101325
101325
101319
101327
101619
101325
101325
101325
101325
101325
101325
101325
101137
101167
101204
101325
101325
101322
101322
101136
101325
101231
101325
101325
101121
105714
101325
101325
101325
101325
101524
101325
101325
103185
101324
101093
101325
101310
101066
101325
101487
101325
101209
101325
101332
101235
100980
101325
101325
101325
101325
101323
101325
101296
101325
101325
101234
101325
101297
101229
101153
101232
101183
101325
101350
101461
100899
101230
101203
101257
101325
101111
101316
101324
101325
101245
101325
101280
101367
101308
101155
66860.3
101189
101111
101325
101325
104249
101325
101314
101325
101416
101325
101286
101325
101325
101113
101325
101325
101367
102104
104231
101325
101325
105325
100963
101325
101325
101358
101325
101325
101325
101935
101325
101026
101139
101316
101325
101199
101254
101325
101115
101388
101325
101325
101325
101325
101325
101338
101320
101325
101321
101217
101325
101325
101325
101325
101364
101325
101325
101325
101325
101325
101325
101325
101343
106251
101325
101325
101325
101325
101153
101325
101108
101563
101325
101370
101025
101325
101325
101325
101689
101263
101324
101275
101299
101325
101192
101325
101325
101325
101359
101311
101324
101325
101246
101215
101319
101325
101102
101309
101381
101560
105078
101613
101459
101483
101130
101317
101370
101325
101397
101325
105948
101325
101735
101255
101325
101325
102709
101325
101423
104198
101078
100394
101200
101461
101325
101325
101086
101325
100635
101325
101325
101255
106352
101325
101289
101372
101325
101325
105862
105949
101325
101325
101231
101154
105779
101325
101330
101325
101325
102261
101325
101018
100100
101325
101325
101685
101075
101298
100938
101325
101325
101325
101643
101325
101325
101325
101313
101239
101202
101325
101325
101325
101168
102185
101325
101183
101817
101070
101325
101325
102985
102524
104934
101173
108501
101325
106835
101289
106752
101325
101325
101325
101325
101325
105916
101325
101323
101325
101310
101325
101098
101325
101133
106232
101325
101195
101325
105216
106920
101492
101140
107428
101325
101325
101135
102559
101325
101325
101323
101325
105767
101325
101325
101325
101325
101443
101325
101325
105433
105407
101118
101325
101325
101325
101108
101325
101325
101325
101325
101325
100514
100993
101325
101325
100238
101243
101548
101311
101325
101315
101129
101304
101277
100419
101325
103817
101325
101325
102901
101278
101604
101401
101325
101325
101325
101325
101707
99890
100767
100195
101474
100925
100569
101325
107188
100993
101151
101096
99592.7
101325
101106
101325
101325
101145
101325
101272
101325
101325
101057
101325
101194
101325
101305
101325
101094
101360
101297
101325
101284
101304
101325
101137
101325
101385
101136
101319
101246
101322
101161
101325
101127
101325
101325
101325
101038
101237
101325
101277
101304
101114
104393
101325
101182
101325
101325
101325
101471
101116
101088
101276
101325
101325
101251
101324
101063
101318
101070
101325
101325
100232
100612
101304
101142
101325
101325
101325
101324
101315
101186
101151
106063
101325
101362
101325
101047
101307
101226
101325
101096
101165
101325
101199
101325
101133
101143
101325
101325
101191
101325
101278
101325
101325
99390.6
101222
101120
100952
101325
101284
101322
101325
101325
101325
101163
101132
101134
101325
101325
101183
101158
101317
101325
101178
101684
101311
101333
101325
101965
101337
101193
101325
101325
101091
101325
101150
101322
101325
101325
101217
101325
101325
101309
101325
101325
97102.7
101324
105591
101224
101314
101344
101370
101170
101216
101325
101325
101325
105648
101325
101328
101325
101325
101298
101325
101410
101139
101213
101325
101718
101318
101177
101584
101352
101324
101219
101325
101307
101293
101322
107112
101214
101325
100867
101325
101089
101177
101224
101325
101325
101319
101325
101231
101555
101325
101104
101113
101238
101286
101129
101325
101311
106437
101321
101261
105404
101325
101325
101277
101296
101325
101325
101306
101324
101325
101325
101325
101291
101266
101319
101325
101323
101325
101324
101317
106543
101207
101325
101325
101325
101071
101130
101315
101325
101324
101223
101325
101325
101325
100701
101325
101325
101323
101165
101292
101325
105602
101542
101325
101429
101325
101325
101325
101325
101200
101325
101296
101325
101325
101324
101324
101325
99831.6
101337
101325
101266
101325
101325
101325
101325
101325
101376
101247
106843
101299
101325
101325
101325
105904
101325
105342
105318
106459
106413
101325
101304
101325
101594
99144.5
101325
100835
101885
101250
101325
101325
106577
101163
101111
101325
109419
101325
101325
101252
101325
101261
101154
101106
101232
101325
101324
101338
101455
101323
101194
101223
101260
101241
101090
101243
101194
105146
101215
101216
101287
101325
101416
101191
101641
101241
102078
101314
101310
100386
101196
101020
101323
101325
101287
101685
101154
101137
101100
101325
101322
101244
101310
101655
101249
101321
106476
101229
101184
101172
101486
100523
101321
101325
101152
101046
101550
101324
101289
101600
101270
101114
101615
101219
101325
101324
101325
100694
101136
101123
101468
105827
101083
101185
101754
101310
100923
101137
101306
101014
101246
101610
101774
101843
101625
101174
107095
101056
101412
101324
100945
101322
101249
101105
101238
101129
107964
101325
101325
101264
101325
101325
102353
101424
101250
101600
101321
107617
101869
101325
101282
101414
101135
106424
101348
101248
101502
101921
101254
101552
101643
101315
106382
101325
101337
101431
101303
101158
106395
101426
101402
101143
101285
101325
101137
101332
101865
101572
101325
101325
101468
101371
101243
105973
101325
101607
101567
101325
101328
101587
101946
101603
101720
101336
102076
101785
101176
101201
101737
101325
101046
101323
101477
105040
101227
101320
106748
101054
101661
106254
101325
101377
107097
101947
101325
101324
101209
101379
101285
105489
101718
101950
101903
101070
101321
101240
101188
101893
101877
101325
101307
101325
105174
101228
106512
107661
101505
105238
104294
105799
101650
101788
107367
101002
101325
101541
101785
101325
101325
101828
101254
101558
101238
101930
101325
101883
101104
101388
108790
101258
101587
101337
101191
107564
101213
101458
105319
101464
101376
101325
101325
101325
101203
112220
101325
101218
101040
105724
101186
101598
101325
101320
101212
101224
104356
101325
101325
106800
101163
101287
101244
104507
101234
101325
101343
101555
101471
101073
101130
101325
106147
105849
101581
101325
104704
101392
101224
101641
107219
102495
101894
100903
101058
101325
101590
101325
101105
101325
101325
101092
101959
101303
101325
101070
102339
101493
101325
101325
101167
101108
101140
101325
106266
105565
101325
101325
101280
101597
101612
101325
101241
101264
101675
99691.8
101325
101245
101355
101245
101213
101990
101325
101087
101336
101291
101613
101325
100320
100303
101325
101351
101611
101325
101325
101183
105645
101325
101599
101230
101181
101561
101422
101280
101325
101143
101331
101325
101042
101166
101149
101165
101583
101143
101273
100870
101299
101264
101269
101628
101325
101234
101389
101267
101210
101361
101765
106662
101456
101257
101068
101531
101358
101228
101226
101526
101325
101200
101331
101301
100380
101325
101184
101149
101226
101325
101228
101187
101004
101325
101310
101503
99341.6
101325
101553
101325
101325
101303
101150
101158
101414
101325
101681
101322
100646
101243
101896
101156
101379
101325
101309
101271
101355
101292
101542
104870
101740
101325
101282
101576
101369
101325
100123
101325
101422
101181
101292
101304
101226
101216
101325
102125
101146
101375
101548
101443
101341
101330
101156
101267
101136
101891
101129
101124
101325
101273
101245
101245
101170
101325
100912
101325
101228
101281
101248
101150
101325
101128
101304
101258
100676
101358
101261
100960
101325
101130
101253
101697
101324
101629
101242
102120
101322
101204
101201
101609
101574
101314
101330
101209
101250
101303
101026
101376
101325
101275
101180
101312
101165
101325
101269
101257
101611
101539
101321
101325
101223
101251
101246
100628
101301
100647
101326
101325
101368
101318
101269
101430
101325
101298
101050
101223
100720
101158
101233
101327
101228
101308
101323
101325
101325
101325
101425
101048
101653
101324
101810
101802
101214
101219
105703
101325
101249
102201
101382
101330
101182
101325
101198
101639
107301
101447
101286
101325
101361
101161
101719
101324
101085
101324
101282
101287
101325
101204
101325
101147
101325
101325
104565
101316
101283
101325
101138
101170
100883
101791
102836
100599
101252
101135
101268
101313
101325
100891
100528
101325
101295
101137
101325
101215
101325
101143
101325
101325
100941
101571
101325
101325
101325
101283
101101
101214
101325
101325
101271
101413
101668
101512
101324
101218
101325
101325
101288
100900
101325
100997
101226
101203
101825
100900
100777
101177
101301
101252
102363
101221
101325
101276
101227
101364
101357
100785
101337
101302
101325
100088
101325
101325
101523
101028
101228
101122
101163
100607
101325
101976
100801
101325
101325
101325
101252
101325
101325
101283
101049
101736
101211
101494
101908
101110
101575
101325
101325
101325
101557
101371
101325
101325
101834
101314
101711
101543
101325
101325
102186
101116
101096
101155
101325
101949
101325
101071
101325
101325
101174
101270
101211
101485
101325
101325
101575
101294
101320
101105
101325
105957
101504
101362
101350
101302
101173
101148
101420
101514
101351
101363
101325
101633
101294
101209
101281
106809
101281
101141
101307
102169
101325
101302
101325
101256
101294
101279
101105
101503
101325
101324
101155
101325
101325
101341
101325
101325
101224
101258
101325
101601
101325
101293
101325
101358
106336
101325
101578
101286
101410
101325
101323
101258
101325
102216
101323
101322
101325
100909
101106
101325
101323
101325
100968
101263
101314
101253
101317
101734
101216
101201
101299
101325
101143
101325
101257
101325
101124
101120
101325
105809
106208
101105
101197
101325
101328
101239
101325
101195
101886
101325
107281
101214
100817
101300
101170
101503
101139
101155
101616
101325
101312
101365
101122
101174
101172
101759
101699
101176
101317
101325
101090
101323
101482
101325
101325
101031
101325
101325
104146
101718
101666
101360
101325
101325
101623
101150
101325
101204
101717
101176
101325
101723
101325
101221
101325
101325
101143
101078
101325
101318
101133
101325
101199
101218
101376
101149
101151
100451
101325
101325
101229
101297
101151
101315
101323
101198
101393
101136
101390
101433
101285
101671
101183
101324
101325
101325
100881
101157
101325
101225
101325
101146
101001
101325
101681
101111
101323
101717
101257
101335
104954
101325
101325
104711
101325
101213
102440
100991
102306
102329
102363
101243
101019
101207
101340
101325
101175
101310
101258
101290
101167
103323
101151
101324
102231
101249
101267
101356
106434
101325
101325
106458
101258
101325
101325
101227
101244
101325
102238
101368
101333
101139
101289
101325
101802
101325
101740
101325
101325
101405
101074
101167
101544
100866
101290
101243
101325
101894
101209
101325
101345
101914
101182
101325
101325
101339
101483
101991
100821
101542
100937
101207
101420
101642
101642
101242
101350
101863
101091
107189
101177
101090
101325
101325
100783
101325
101134
102336
105466
101544
102276
106314
101325
101269
101331
101271
101325
101163
101492
101474
101131
101036
101672
101272
105289
101766
101180
101019
102268
101507
101341
101325
101269
101385
101552
101347
104093
101095
101325
101136
101181
101325
105554
101347
101141
101320
101477
101172
101246
101247
101370
101326
101448
101325
101313
101272
101286
100710
101325
101933
101239
101617
101518
101785
101324
101393
101163
101144
101325
101185
101312
101782
101387
101669
101113
101868
100252
101325
102100
101320
101173
101324
101323
101324
101229
101325
101323
101515
101218
101250
101295
101372
101325
101325
101325
101309
101201
101202
101325
101325
101310
101120
101874
101165
102363
102415
101325
102351
101325
102346
101325
101325
101325
101225
101284
101325
100312
101357
101516
101325
101290
101264
101347
101237
101334
101302
101160
101182
101325
101689
101838
101196
101678
101265
101324
101303
101325
101325
102015
102026
101603
102124
101225
101325
101325
101389
101116
101325
101149
101325
101325
101325
101535
101269
101357
101274
101097
101590
101895
102157
101379
106713
101208
101286
102337
101140
101325
102241
101325
101027
101232
101219
106856
101490
101237
101325
101076
101646
101325
101040
101325
101579
101419
101699
101325
101323
101325
101325
101310
101302
101260
101194
101170
101309
101287
101278
101226
101297
101513
101324
101614
101506
101639
101539
101320
101309
101736
101642
101325
101253
101289
101365
101117
101297
101628
101484
100564
101965
101567
101325
101366
102081
101030
101568
101624
101160
101309
101208
101104
101244
101499
101171
101590
102190
101255
101368
101147
101692
101014
101374
101398
101315
101057
101323
101265
101272
101140
101325
101204
101325
101325
101325
101320
101752
101647
101411
101664
100977
101990
101196
101140
101305
101342
102355
101742
101230
101615
101257
101249
101540
101169
101664
101887
101094
101325
101604
101324
101325
101325
101526
101325
101222
101157
107360
101698
101248
101255
101221
101274
101318
101325
101514
101325
101517
101231
101182
101351
102146
101150
101152
101190
101872
101784
101149
101805
101153
101060
101220
101325
101128
101340
101297
101325
100993
100933
101656
101325
101629
101424
101048
101325
107152
101702
101325
101325
101236
101544
101385
101325
101326
101749
102025
102117
102007
101681
101398
101315
101073
102038
101314
101095
101614
101095
101339
101929
101325
101288
102189
106023
101301
101973
101716
101236
101414
101213
101272
101457
101273
101106
101139
101213
101314
100933
101163
101257
101296
101285
101277
101325
101325
101325
101578
106277
101325
101355
101325
101161
101341
101151
101282
101597
102030
101194
101172
101273
101325
101221
101274
100054
101325
101295
101828
101029
101235
101325
101155
101271
101394
101437
101380
101150
101986
101954
100991
108966
101237
101717
101185
101180
101111
101070
101072
100969
101771
101813
101750
101061
101620
101798
101819
102101
101261
101075
101741
101395
101348
101296
107457
101244
101595
100934
101301
101176
100886
101485
100939
101633
101166
101326
101477
101325
99676.9
101813
101408
100959
101069
101211
100993
101233
101436
102084
101437
101235
101399
101176
101190
101168
103134
103659
101142
101323
101236
101351
101145
101140
101208
101350
101314
102211
101442
101335
101402
101396
105902
101140
101246
101591
101114
101095
101638
101550
101644
101539
101289
100926
101706
101232
101029
101850
101824
101396
100989
101287
101133
101325
101127
101265
101325
101405
101620
101325
101113
101195
101303
101240
101833
101591
101308
101159
101199
101285
101520
101253
101290
101221
103883
101282
101440
101313
101183
101011
101431
101392
106673
101274
100996
106035
101308
101328
101469
101288
101165
101810
101384
101710
101192
101228
101327
101325
101300
101153
100951
101165
101243
101267
101226
101194
101150
101023
101310
101367
100971
101226
106447
100978
101395
101496
101021
102026
101232
101212
101325
101000
101124
101012
101083
101243
100996
101257
101765
101629
101120
100809
100975
101263
101039
101560
101301
101700
101291
101108
101093
101325
100650
101325
101325
101325
101325
101325
101325
101325
101502
101325
102330
102431
101325
101325
101325
101216
101185
106536
101153
101296
101168
101325
101325
102118
101925
101325
101325
101318
101045
101325
101325
101325
101201
101759
101325
101325
101325
101325
101325
101322
101301
101961
101325
101286
101140
101325
101325
101446
101488
101325
101658
101324
101325
101325
101321
101325
101325
101325
101325
101325
101325
101325
101325
101573
101325
101388
101325
101325
101325
101325
101325
101325
101391
101325
101230
101325
101325
101325
101883
101140
101209
101236
101325
101325
101325
101325
101325
101325
101325
101325
101325
101325
101325
101325
101325
101325
101325
101325
101325
101325
101622
101325
101325
101325
101325
101508
101325
101325
101325
101325
101325
101325
101526
101487
101325
101325
101786
101325
101275
101325
101516
101576
101084
101532
101325
101581
101325
101325
101325
101325
101313
101325
101325
101325
101325
101325
101325
101325
101325
101325
101325
101325
101325
101747
101789
101325
101324
101503
101325
101382
101325
101358
101325
101325
101325
101325
101325
101325
101325
101325
101325
101325
101294
101325
101252
101325
101270
101325
101325
101325
101325
101325
101325
101299
101204
101277
101036
101321
101325
101038
101135
101325
101325
101325
101325
101325
101325
101249
101325
101325
101325
101325
101325
101325
101325
101325
101325
101285
101325
101325
101325
101325
101325
102487
101325
101325
101852
102356
102251
100532
100967
101222
101325
101941
102205
101325
101965
101325
101023
102442
106943
102116
101324
102021
104925
101578
102261
101299
101325
101246
101283
102428
102285
99186.2
102386
102195
102411
100869
102506
100228
101290
101325
101321
105868
102518
101290
101325
101167
101325
101161
101325
101722
101325
100999
101195
101891
101162
101398
101045
101413
105253
100773
101324
101190
101158
100895
101325
101308
101224
101138
101315
101512
101324
101049
101325
101322
101306
101203
101325
101325
101137
101325
101325
101325
101086
101119
101239
101325
101325
102490
105337
101302
101248
101280
101203
101386
101238
101345
101325
101320
100947
101254
101125
101151
103382
110443
100710
101347
101058
101214
101242
101322
101685
101126
101168
101804
101179
101040
101698
100667
101325
101123
101074
101127
101352
101353
101089
101116
101320
101077
101185
100997
101256
101324
100933
101239
101103
101309
101107
101325
101273
101441
101282
101316
101182
101047
101311
101478
101308
101255
101318
101324
101454
101188
100964
101322
101321
101434
101936
101321
101317
100792
101325
101074
101325
101439
101228
101630
101325
101186
101251
101091
101207
101538
101240
101243
101085
101256
101172
101371
106424
101325
101325
101135
105857
101651
101557
101357
101594
101656
101705
101429
101428
101325
101125
101209
101325
100305
101224
101556
100609
101608
101242
101259
101099
101613
101441
101220
102023
101217
101325
101834
101132
101525
101203
101283
101325
101124
101278
101348
101398
101257
101531
101325
100892
101229
101313
100341
101285
101218
106211
101297
101325
101128
101383
101325
101419
100507
101224
101200
101325
101393
101323
101325
101324
101325
101661
101544
101031
101206
101233
101270
101286
100924
101207
101474
101031
101388
101158
101601
104840
101258
101143
101092
101325
101226
101286
101662
101859
101947
101325
100320
101325
101325
100776
101562
101546
101331
101325
101325
101325
101325
101285
101405
101219
101346
101137
101424
101506
101325
101318
101226
101325
101307
101179
105973
101325
101325
101815
101752
101031
106535
101325
101439
101219
101311
101457
107198
101328
101866
101608
101325
101506
101622
101544
101651
101277
101363
101135
101803
101163
101666
101325
101324
101283
101368
101396
101155
101402
101750
101325
101368
100448
101549
101695
101876
101674
101749
101390
101938
100915
101725
101889
102788
101325
102560
103214
101587
101325
101325
101578
101949
101325
101617
100250
101179
101332
101325
101394
101305
101172
101624
102038
101760
101325
101098
101315
101325
101718
101325
101241
101133
101261
101631
101325
101312
101325
101325
101300
101183
101433
101325
101321
101245
101594
101325
101237
101128
101325
101924
101386
101431
101247
100822
101513
101230
101515
101201
101180
101109
100888
101331
101152
101296
101098
102206
101241
101325
101665
102032
106792
102111
101592
101043
101263
101229
101379
101781
101264
101642
101285
101439
104910
101193
101407
101699
102522
101691
101584
102517
106155
101469
101926
102226
101469
101225
101120
101026
101927
106625
101478
101542
101170
101486
101969
100877
101440
102457
101325
101552
101254
101246
101467
101623
101531
106785
102485
101779
102679
101627
101519
101223
101413
101271
101325
101136
101465
101875
101204
101882
102202
102168
101476
101993
102161
101044
101103
101428
101855
101543
101591
101277
101139
102133
101595
101681
101623
101481
101325
101401
101191
101301
101922
100470
102345
100312
101325
102164
103924
101527
101390
102123
101913
101660
101556
101113
101280
101691
101860
101659
101455
101135
101293
101316
101384
101125
101272
101272
101170
101551
101277
101247
101279
101247
101547
101102
101330
100669
101328
101369
101627
101173
101127
104330
101102
101272
100957
101953
102019
101448
106932
101498
101304
101535
102030
101573
101024
101771
101362
102226
101584
101423
101481
101662
101350
100261
105323
102047
105385
101542
101325
101194
101097
101515
101392
101695
101746
101069
101492
102019
101385
101640
101877
101653
101208
101612
100575
101271
102687
101979
101519
101164
101332
102013
100678
100534
101505
101451
101662
101495
102037
101370
101444
101551
100564
102092
101278
101386
101471
101702
101123
101136
101163
100808
100951
100631
100727
101325
100870
101838
101530
101108
105254
101092
101405
101997
100179
101325
101270
100882
101822
101123
101546
101232
101628
101152
104102
101606
102133
101186
102039
101180
101296
101288
101064
102584
99725.9
100203
101137
101404
101893
99991.8
101086
100375
101191
101336
101707
101965
101627
101467
101283
101832
101272
101330
100179
101325
101325
103695
101290
100489
101307
101130
104750
101216
100999
104768
101756
100035
101510
102312
101655
100117
101003
101325
99950.4
102259
102223
101217
100431
101984
101028
101154
102100
101621
101123
101688
101727
101149
101456
101046
101567
101909
101348
102150
101621
101193
101313
101669
101239
101538
101583
101946
99892.2
101252
101621
101305
101242
99960.7
101707
101376
101458
101160
101642
101257
106197
102099
101255
99977.1
101480
101598
99657.2
101813
101411
101235
100115
101325
101822
101404
101134
101425
101358
102389
102018
101265
101298
101884
101128
100723
100393
101188
105928
102284
101286
102067
101045
105291
100099
101540
99481.7
101245
107024
101975
100139
99957.1
101234
101830
101713
101291
101226
101668
105999
105596
101429
101465
101177
101873
100062
101283
101474
101609
101521
101325
101714
99614.1
101351
99949.5
102105
101368
101255
101784
101460
101685
101995
101093
101306
101695
101146
101709
101486
101489
101311
101327
101279
101889
100398
100860
100844
100863
101278
106235
101109
101210
100398
101498
101296
101270
101613
101259
101219
100590
101176
101189
101071
101565
100335
101587
101167
101674
99255.5
101221
101286
101133
101193
101104
101240
101352
101298
101065
101188
101331
101258
107223
101261
101184
100305
101285
101179
101212
101442
101336
101186
101320
101130
101963
101910
101912
101352
101577
105863
101213
101400
101467
101313
101355
101325
101212
101322
101269
101604
100992
100969
100950
101463
101215
101483
101343
101708
101493
101484
101592
101353
101009
100746
101361
101190
101536
101198
101225
101247
101491
101322
101314
101624
101217
102415
101250
101394
101525
101502
102325
101917
101823
101880
102442
101325
101576
105958
101303
101115
101254
101190
101219
101198
101157
101731
101308
101308
101659
101586
101236
101450
101866
101150
101399
101325
101331
101356
101558
101157
101753
101286
101202
101301
101142
101392
102136
100725
101684
101325
101098
101169
101249
102412
101520
101412
101450
102067
101206
101389
100572
102381
101067
102529
101470
102213
101296
99821.5
101275
100744
101325
101329
101325
101262
101429
101204
101465
101530
102625
101101
101281
101554
105389
100874
103823
101628
102485
101374
101342
101163
101323
101435
101376
101331
96924.9
101138
101244
100792
101287
102244
101150
101293
101225
101380
101114
101650
102071
101273
101263
101117
101325
101253
101331
101640
100798
101206
100793
101189
101914
101290
101039
101447
101380
100747
101295
101313
101446
101229
101988
101284
101390
102172
101336
101325
101609
101325
102342
101171
101294
101204
100432
101270
101443
102386
101235
101115
101175
101633
101557
101714
101258
101157
102177
101058
101187
101623
101325
101325
100474
101135
102190
101325
101306
101328
101397
100969
101199
101187
101220
101230
101232
101308
101530
101299
101512
100854
100991
101379
101251
101226
101118
101534
101079
101360
101325
101710
101393
101649
101537
101325
101562
101093
101041
101307
101297
101325
101518
101694
101457
101504
101185
101458
101448
101666
100934
101123
101219
101125
101402
101319
101325
101307
101195
101572
101500
100789
100883
101437
101598
101389
101230
101206
101489
100836
101516
107156
101026
101057
101128
101495
100739
101187
101420
101574
101260
101269
101087
100170
101459
100575
101214
101170
101353
100443
101045
101519
101233
101254
101814
101193
101505
101235
101325
101326
101708
100704
100648
101194
101171
101305
100587
101489
101055
101243
105550
101373
101435
101223
101101
101201
101325
101325
100989
101325
101325
101113
100962
101158
101325
101283
101325
101106
101325
101325
101121
101427
101325
101983
101401
101325
101238
101325
101325
101325
101325
101325
101325
101463
101089
101325
101310
101070
101175
100986
101263
101116
101307
101174
101310
101321
101144
101140
101457
101867
101212
102076
101039
101251
101104
101142
101224
101044
101071
100984
101122
101844
101142
101264
101094
101408
101263
101610
101187
101287
101166
101271
101548
101288
101303
101263
101459
102058
101243
102041
101165
101222
101325
102038
101739
101322
101325
101245
101132
101325
101342
101325
101742
101194
101325
101325
102090
102002
101675
101648
101325
101325
101438
101352
101325
101325
101325
101440
101310
101325
101325
101325
101325
101325
101325
101325
101455
101139
101325
101325
101325
101663
101325
101094
101325
101326
101325
101325
101325
101325
101325
101325
101325
101325
101325
101325
101705
101325
101325
101773
101509
101325
101325
101325
101325
101368
101331
101325
101286
102048
101242
101325
101325
101640
101211
101251
101325
101097
101325
101325
101265
101091
101055
101213
101203
101325
101325
101068
101325
101325
101325
101122
101253
101325
101325
101325
101325
101325
101325
101325
101419
101320
101325
101177
101325
101865
101501
101507
101325
101325
101495
101325
101325
101511
101459
101325
101370
101325
101327
101694
101325
101322
101320
101321
101325
101427
101325
101325
101235
101325
101325
101325
101649
101325
101747
101325
101325
101325
101167
101264
101142
100999
101372
101315
101356
101325
101226
101395
101306
101135
101287
101090
101325
101325
101253
101953
101286
101613
101325
101281
101709
101184
101034
101324
101277
101252
101113
101260
101691
101325
101533
101084
101325
101325
101468
101659
101325
101325
101396
101325
101277
101325
101239
101290
101221
101237
101325
101325
101325
101203
101023
101325
101031
101423
101325
101387
101151
101324
101313
101138
101372
101325
101325
101301
101262
101254
101257
101318
101207
101214
101325
101060
101324
101323
101325
101325
101316
101323
101595
101169
101360
101472
101111