/*--------------------------------*- C++ -*----------------------------------*\
| =========                 |                                                 |
| \\      /  F ield         | OpenFOAM: The Open Source CFD Toolbox           |
|  \\    /   O peration     | Version:  2312                                  |
|   \\  /    A nd           | Website:  www.openfoam.com                      |
|    \\/     M anipulation  |                                                 |
\*---------------------------------------------------------------------------*/
FoamFile
{
    version     2.0;
    format      ascii;
    arch        "LSB;label=32;scalar=64";
    class       surfaceScalarField;
    location    "0.25";
    object      phi;
}
// * * * * * * * * * * * * * * * * * * * * * * * * * * * * * * * * * * * * * //

dimensions      [1 0 -1 0 0 0 0];

oriented        oriented;

internalField   nonuniform List<scalar> 
62453
(
31.8676
-1.32351
-6.71785
-1.4957
30.2356
-3.59699
-27.8485
3.60437
-2.4137e-11
1.08496e-10
-8.8298e-11
2.83942e-12
-1.2728e-10
4.12574e-11
-9.1308e-11
2.97759e-11
1.16212e-11
-9.47727e-11
-2.05767e-11
-2.01306e-12
-1.33416e-08
8.01416e-09
-1.21377e-09
1.9947e-08
66.4848
32.5967
-20.7107
8.32556
10.0934
-33.3945
-32.8563
1.06985e-10
-3.5536e-11
-4.66634e-11
-4.97371e-11
-1.46975e-06
-5.92172e-07
8.74604e-06
-1.72914e-06
-8.50751
-54.3615
68.7704
46.3653
-27.5386
8.39691
0.202897
0.0685603
-0.127561
0.221862
-7.03929e-11
-5.82817e-11
-3.76762e-11
9.46555e-11
-1.25105e-12
3.47944e-11
-6.04752e-12
-15.0077
-14.3835
29.6918
-7.51478
-0.00147603
0.00405823
0.0022659
0.000824596
8.89859e-08
-2.31891e-08
3.0197e-07
-6.14842e-08
74.673
-33.7283
20.0644
-45.1767
3.10168e-11
4.60309e-11
-1.61929e-10
6.60633e-11
7.53932e-11
-1.28276e-11
3.78098e-11
2.9281e-11
0.0033325
-0.000711715
0.00198151
-0.00133841
-2.73468e-11
1.40434e-11
2.32612e-11
-5.06856e-11
6.95755e-12
8.2553e-11
-0.00662499
0.0171677
-0.00249177
0.000500934
1.84762e-10
-1.87679e-11
-7.85787e-12
8.82578e-11
-1.76127e-09
-3.43652e-10
-5.62437e-10
-5.18333e-12
120.869
6.86215
-125.778
8.47048
1.12718
-2.05502
-0.827383
22.4209
25.6448
-49.4049
-2.96579e-11
-2.36947e-11
6.03831e-11
-10.0153
40.2478
79.1699
-133.74
-4.8594
-3.70401
-3.99928
18.8935
37.3577
-65.2554
31.1491
-17.2706
-14.0059
-9.12036
-13.7154
49.3844
5.523
2.74101
-6.43633
5.71889
9.20158
33.4753
-62.0513
-6.23652
-9.76235
10.3994
-21.1997
8.35849
-1.23663e-10
3.74912e-11
2.50178e-10
-2.05516e-11
1.31228e-10
1.11262e-10
-1.11241e-10
-4.5342e-11
6.81132e-12
-1.4808e-11
9.48647e-12
9.54528e-11
2.1681e-10
-1.37683e-11
9.66278e-12
2.27288e-10
-6.89445
-16.9636
27.0204
2.17175
-1.44028
0.674365
0.328846
62.3258
48.9174
-43.3975
-68.0976
-0.186226
-19.4657
13.9672
-4.21349
5.23117e-13
-5.56075e-11
-5.79532e-11
2.21549e-10
27.2393
122.284
-32.2072
-116.973
21.0132
-33.9724
58.2022
8.06143e-11
-2.41308e-10
-1.54121e-10
1.44152e-10
-0.807873
6.23131
-2.73434
125.051
-85.4298
-96.0395
49.8704
3.43646e-11
6.51571e-11
-1.06074e-10
9.23149e-11
-7.14968
-5.11959
6.60037
5.6863
-3.21464e-11
7.05287e-11
4.12877e-11
1.94027e-11
-60.5847
24.4855
101.004
-64.6043
-1.80257e-11
8.61997e-11
1.16433e-10
5.51771e-11
1.68347e-10
-3.16115e-10
-17.2499
-1.89975
6.57486
1.00315e-10
8.70397e-11
-1.03265e-10
2.1125e-10
-9.74586e-11
1.39991e-11
-42.2644
-24.5712
14.7776
24.1557
-217.737
12.6236
45.6154
158.456
-1.28323e-12
2.09686e-10
-2.49801e-10
-4.82449
27.57
-16.1233
-4.23695e-11
-4.39389e-11
-1.96348e-11
-2.63041
29.4294
-11.3699
-7.87994
4.59377e-11
5.71781e-12
-8.7154e-12
8.31174e-11
-23.1008
57.1069
16.18
-50.6767
-5.1298e-12
6.10029e-11
9.32562e-12
2.02518e-11
-4.24287e-11
9.90833e-11
-1.06099e-11
7.44446e-11
-1.59069e-10
2.45944e-10
-8.77151e-11
-32.168
32.2942
-4.68662
15.2841
-199.472
84.362
112.101
-2.05677e-10
-6.55742e-11
6.28209e-11
1.02715e-10
2.77311e-05
-7.81914e-06
-4.40798e-07
-6.85546
-1.0643
0.54127
7.45797
-9.3555e-11
-6.50171e-11
5.48198e-11
6.84334e-11
-3.12906e-11
-6.19519e-11
2.04556e-11
-2.76164e-13
1.26404e-10
-4.90744e-12
1.68473e-11
9.47207e-11
-6.15098e-11
-5.75406e-12
-1.53537e-10
1.52671e-10
-1.08834e-10
1.71515e-10
2.6303e-10
7.21428e-11
-11.6539
13.2947
-11.4685
9.15351
-70.8839
-9.55897
80.2208
5.04495e-09
-3.15095e-08
-4.80158e-08
2.91456e-07
-1.11599e-05
-2.9371e-05
8.5931e-07
0.00010201
4.89032e-11
-5.03836e-11
5.16647e-11
-2.49584e-11
11.6933
-0.131622
10.3564
-22.2887
-1.9872e-11
3.20106e-11
1.55038e-11
3.69805e-12
8.04386e-11
-2.79282
9.32673
-12.8416
1.02002
5.01129e-05
-1.90334e-05
-2.29508e-11
6.05351e-11
8.94892e-11
3.94762e-11
-5.4392e-11
2.00711e-11
-1.36082e-11
7.06736e-11
-5.41889e-11
-7.3111e-11
-3.25432e-11
-3.04905e-11
1.96533e-11
1.51203e-11
37.2648
-7.59273
-1.2042
-17.8052
-11.2977
0.0543857
1.708
12.3449
-1.32552
40.0709
-38.1104
0.000203086
-3.25184e-05
-0.162806
0.299086
0.531932
88.3513
-43.5424
-47.7502
24.6312
16.8939
-55.3618
4.37574
6.57665
5.48648
-7.63015
-20.2044
5.45969
9.15805
5.4453
1.1288e-07
4.97315e-08
-1.92132e-07
1.45528e-06
9.26701e-06
-6.23403e-06
-7.56043e-06
2.82556e-05
324.843
-82.9251
119.832
-376.416
2.49014e-06
-2.40993e-07
-2.20836e-07
-13.5327
-4.07784
18.0836
2.34346
-1.10794e-10
1.59848e-10
1.28496e-10
-3.41204e-11
-1.587e-10
-1.22285e-11
2.31325e-11
-27.9359
-26.1225
57.6294
8.74042
-19.195
14.2063
-6.02867
7.4054
-2.19999
3.44353
-13.1757
1.2156e-06
2.57977e-05
6.41295e-06
-9.59623e-06
-3.59769e-07
-9.14101e-07
2.7438e-06
2.26699e-06
-110.284
31.2887
-39.1607
112.469
2.23623e-11
-3.52586e-11
-7.12744e-11
3.45517e-12
2.31704
-6.41915
8.47962
-3.45073
4.23037e-10
-2.53982e-11
-9.4662e-11
-2.16172
16.1083
-5.54907
-15.9146
18.0568
-10.9422
20.652
20.2447
3.26243
0.656824
-24.2072
-1.50692e-10
-2.13527e-11
-2.44753e-11
-1.17493e-10
3.85285e-11
-1.02161e-10
7.56224e-11
13.0207
-0.93679
13.0693
-22.2942
47.8727
-27.3972
49.1926
-71.5292
-36.9078
-0.914812
37.5133
-21.1653
14.7348
-18.3318
29.3933
-32.4375
-3.79836
-5.19579
40.5909
-9.871
-4.80069
-4.33168
18.3389
-3.22833
-0.980616
3.98301
13.4658
1.01654
7.38824
-26.6422
9.61507
-27.1118
7.59778
23.6666
-0.0667337
0.171201
0.032032
4.73425
4.53018
-3.85345
-0.325013
1.27921e-11
4.59424e-11
4.38073e-11
-10.9558
8.41897
-8.592
10.6737
-12.7379
44.4046
-11.7014
-14.8132
2.47768
-0.959808
-1.32942
1.60815
-139.781
36.8614
17.1745
47.2088
4.35329
-1.42589
-2.21945
2.25479
5.71052e-11
-2.09958e-11
4.36406e-12
4.33739e-11
0.00130176
0.00591742
-0.00101225
-0.000420767
-11.0663
15.6285
-14.4428
10.833
-17.0739
15.3866
1.84882
0.000578767
0.000783914
-0.000188539
-0.000487988
5.88387
28.2566
-30.9152
-3.69984
-17.9399
13.2848
12.2955
-9.72603
-1.09643e-10
-1.05733e-10
8.1983e-12
7.8178e-11
-1.40577e-10
1.79808e-11
-3.22979e-11
6.89545e-12
-3.6317
-0.641762
-5.44949
14.9125
-41.545
5.37147
25.202
14.286
2.52164e-07
-1.23186e-07
5.57645e-07
-9.99268e-08
-16.4408
1.48146
4.66261
2.94468e-11
1.57014e-10
-2.13746e-11
1.66225e-10
-5.57509e-11
-1.69501e-12
7.33895e-11
-6.46176e-11
9.7328e-11
-1.75082e-11
-4.87369e-11
-5.64556e-11
10.9747
15.2282
-32.1433
6.77906
10.5993
5.19761
-2.29004
-4.92466
1.16695e-11
-1.40397e-11
9.13126e-11
-3.0374e-10
-0.508285
0.0156427
1.31713
0.260047
9.60481
-60.1256
2.54219
16.2462
134.444
-4.48041
-104.35
-1.44249
-8.19203
1.0828
8.55656
-3.16878
0.988226
-19.3491
19.5206
0.490195
5.42439
0.794518
-6.74513
1.50006e-11
5.64523e-11
-2.77651e-11
-6.8778e-12
5.18902e-12
1.42874e-12
-8.3278e-11
-7.38771e-11
5.51653
0.507141
-0.224476
-5.81897
-0.179864
-0.480338
1.45204
0.101793
10.6868
-5.30238
8.02299
-11.4006
9.41799e-11
7.9526e-11
-7.97084e-11
-5.37115e-12
1.85785e-07
-6.78234e-07
5.75998e-06
-1.32698e-06
9.00191
0.236378
0.445177
-13.4193
0.00842752
0.00345974
-0.00537347
-0.00247896
0.00980771
-0.00389048
0.00469028
-0.00151016
-4.60633e-13
-4.29132e-11
4.83294e-11
1.57388e-10
5.29946e-11
4.56707e-12
1.57861e-10
0.0180531
-0.00688228
-0.0010198
0.00388828
-2.92339
-9.545
19.4836
-7.86711e-05
-2.2526e-05
0.000136335
0.000187718
-7.10609
-17.6391
0.892914
16.5288
-0.0431932
0.0793541
0.0296551
-0.00684924
-0.00454558
-0.0109109
0.00296176
-10.4215
-10.2418
19.0704
-5.5125e-11
-1.83128e-11
-5.36795e-12
-8.05248e-11
-4.53225e-11
7.54756e-12
5.24825e-11
-2.37926e-11
-3.91262e-11
1.36732e-11
-12.4838
14.8053
21.0725
-18.002
-0.625292
1.98808
-3.28209
6.50607
-13.4932
22.1564
-12.4776
-5.9653e-12
-1.52283e-11
-7.11217e-12
-8.20972e-06
2.09106e-06
-9.58612e-06
4.96902e-05
-3.96273
18.6012
-23.1318
0.581441
30.3303
-32.3722
3.45808
-20.0119
10.8236
8.53568
212.232
-125.117
-215.354
116.397
-119.213
-54.6859
108.926
-11.4934
3.2973
35.6502
-31.1435
8.3106
-39.0538
11.3717
3.40042
-1.09442e-10
-6.12162e-11
-1.17286e-11
1.07672e-10
3.30045e-11
7.60464e-12
0.509171
-15.2767
-5.0443
11.7038
15.3606
-5.2539
-14.5789
14.1285
39.5115
12.2564
-12.5203
-45.66
-2.60357
1.82829
-5.6501
6.47169
-3.66571
-2.62947
3.71106
0.000535771
-0.000970662
0.000170499
0.0026062
4.01347e-11
1.49325e-10
1.38272e-10
-2.63438e-10
6.50894
22.1547
5.66122
-41.1036
-18.7255
10.307
14.5338
1.45603
2.5102
3.42137
-6.37715
-29.762
11.1201
13.0176
0.730149
-28.9827
-25.5861
56.0258
-7.91278e-11
9.81072e-11
4.52791e-11
2.54327e-10
7.08369e-08
-7.70425e-08
9.96468e-08
1.04492e-07
-6.2422
11.2099
2.32208
-7.38739
18.6545
-8.78902
16.6792
-2.32973
26.9223
-28.4161
-7.5505e-11
-6.59128e-11
7.58068e-11
1.5574e-11
-3.72332e-11
-1.91456e-11
-20.8211
8.4541
33.0829
-8.05677
-9.53497
3.4143
17.521
-11.245
8.82942e-07
6.9389e-08
1.22902e-07
-3.21577e-07
-3.49276e-06
1.74316e-05
-4.41294e-06
3.73971e-06
33.3372
28.5218
-31.9922
-17.0254
6.32151e-11
-3.18892e-11
1.0767e-10
-3.53851e-11
-7.62964
3.54645
2.47041
1.58235
-1.77487e-10
1.40324e-08
-3.28774e-09
2.93534e-10
-1.47045e-09
-4.63195e-09
1.95506e-08
17.0034
-0.701534
-22.3128
5.59448
56.9416
-40.0562
22.0213
-2.7739e-11
-4.90201e-11
5.43204e-11
135.542
-101.396
151.85
-198.552
0.0481607
0.00247565
-0.00505446
-0.00958191
-26.721
16.3881
-141.653
82.1812
-116.774
169.274
-27.6186
2.54465
-3.59133
32.4886
-30.6098
22.1176
37.9867
-19.8277
-1.27388e-11
2.00102e-10
-4.7604e-11
3.09486e-09
3.93283e-09
-8.96774e-10
-5.16799e-11
2.68984e-10
1.60083e-10
-9.66378e-11
-8.06812e-11
-0.000648327
0.00176747
0.000831794
-0.000358038
-6.4336e-12
1.95356e-11
-4.84375e-11
1.54825e-11
1.19972e-09
7.99101e-11
-2.7437e-10
-30.1787
30.4987
19.6433
-20.6504
1.14638e-05
-1.6694e-06
-5.25364e-07
-35.7823
22.899
11.085
27.8962
-1.83993e-10
-3.90849e-10
4.85646e-09
0.149652
-0.0271779
-0.0347971
0.00513441
4.67368
-8.63927
0.383885
-0.00145208
0.00186296
0.00576206
-0.0012522
4.30206
-1.01495
1.8245
-2.9155
1.41937e-08
-8.99875e-11
3.16356e-08
-9.48585e-09
-2.03057e-10
-6.5949e-11
-1.91512e-10
-1.32184e-11
8.37262e-11
6.63615e-11
-7.88142e-12
4.06724e-11
3.28855e-11
2.05499e-10
1.00127e-10
-3.64056e-11
-4.54655e-10
8.43696e-10
6.78682e-10
6.12398e-09
-1.20807e-09
1.71311e-09
-1.459e-09
1.20933e-06
-4.11655e-07
-1.9322e-07
1.07682e-06
0.100995
0.00535631
0.114732
22.8184
-0.704978
-12.1769
2.1692
-1.81716e-11
4.12607e-11
-1.27211e-11
-9.46001e-11
2.41672e-07
-6.01982e-08
3.02175e-08
8.03211e-08
-2.14963e-11
-5.21609e-11
1.64744e-10
1.17144e-07
4.68596e-09
-8.05786e-09
-2.21297e-08
5.77497e-06
-4.41219e-06
9.27512e-06
4.29216e-08
-2.90707e-09
-6.86213e-09
1.17152
-0.818322
2.46694
-2.71111
-0.163718
1.24359
-41.3685
21.5
-20.3649
1.96629
13.8339
1.39008
-5.46364e-11
5.43084e-11
2.89874e-11
-2.96078e-11
-7.23409
-33.8544
23.8932
2.81859
7.9637e-07
2.4386e-06
9.38951e-07
-1.12416e-06
-115.225
-23.3266
98.168
41.9597
-6.37308
2.91617
-44.5783
48.2007
-5.47421e-12
6.83608e-11
4.30818e-11
-4.74352e-11
35.6785
-26.0283
20.916
-4.33218
-2.53903
9.47277
16.2283
-37.3749
-7.5727
29.2046
6.84338e-11
8.23538e-12
-2.9545e-11
1.2402e-10
2.28879e-08
1.88525e-10
-5.62374e-09
-1.55308e-09
7.26801e-11
-3.53974e-11
1.34452e-10
1.02634e-11
117.738
-79.8979
-5.84601
25.6331
-4.40489e-11
-3.05026e-11
4.83377e-11
-4.83451e-11
-5.57513e-11
-1.49615e-11
-11.9353
6.10616
12.1373
-6.30797
11.6498
-14.1306
11.9322
-3.00445
7.18064
4.26253e-11
4.18193e-06
1.25829e-06
-1.09137e-06
-1.8532e-06
-9.24117
20.3408
-14.4154
8.93367
-7.30619e-11
-3.82502e-11
-3.97162e-11
2.07518e-11
5.18995
-64.3532
1.35331e-07
7.23213e-07
1.33106e-07
-1.88225e-07
-0.000102407
-0.000115339
0.000175423
0.000528167
-3.3998e-05
0.000206497
-2.88228e-05
-3.41209e-05
2.9555e-11
-1.63004e-11
5.58179e-11
-4.38409e-11
-1.36025e-10
1.06526e-10
7.70485e-11
5.90782e-11
1.18401e-12
1.5521e-10
-3.53581e-12
-4.66501e-12
6.1922e-11
4.6876e-11
8.59825e-11
4.78405
0.497936
6.28363
-5.5312
4.58184e-06
-1.27677e-06
-4.14051e-07
-0.000152883
0.00198671
-0.00049821
-7.10793e-05
2.23214e-11
-8.23184e-11
1.47011e-10
7.55863e-11
8.69329e-11
-2.66961e-11
-1.60524e-10
3.84171e-05
-6.61904e-06
-2.94445e-06
-8.65348e-06
1.27051e-10
-2.03485e-10
-2.55563e-10
1.57228e-10
-0.000826201
0.000621828
0.0018788
-5.03202e-05
32.7514
-25.9663
-36.3308
-2.04712
-2.01082
-2.92038
6.96319
2.3426e-05
1.73958e-05
-1.06069e-05
2.0224e-06
2.00104
-3.64519
-0.0192382
7.43941
-2.0932
248.457
14.4331
25.8584
-293.21
0.00027307
-4.86156e-05
-9.51582e-05
6.04227e-11
9.41647e-13
-5.92831e-11
2.68067e-14
-1.25206e-11
-9.08196e-13
-8.37604e-11
-8.45499e-11
-0.000104115
2.41589
-37.3012
20.4098
-1.91157e-11
-1.05468e-10
-1.17336e-10
2.23899e-11
4.2009
-10.2058
20.962
-3.65124
5.28244e-11
2.47171e-10
-1.79746e-10
2.19466e-10
-3.67305
-32.9612
-2.4235
7.38683
-6.14959e-11
-6.65337e-11
1.1725e-10
-5.59489e-11
5.5903e-11
-4.63428e-13
1.45303e-11
-5.46907e-11
-8.19382e-11
-1.87397e-10
8.64991e-11
0.303449
-0.180088
0.000863732
7.29612e-11
1.10452e-10
5.06689e-12
8.54628e-12
-1.06472e-10
-1.74492e-10
1.35529e-10
-8.09253e-11
1.24487e-11
1.52939e-11
-9.68547e-12
-2.20791e-11
-3.63282e-11
0.00105456
-0.000284572
-0.0060274
0.020099
2.98934
-1.01064
0.109619
0.0594252
6.12185
-30.335
9.64044
-0.542348
-21.4022
33.891
-18.025
7.54157
1.76071e-11
-2.36874e-11
-8.28393e-11
8.801e-11
1.77455e-11
6.98258e-11
2.90145e-11
-7.67765e-11
2.40645e-12
3.07133e-11
8.47708e-11
8.58847e-11
-4.09755e-11
-7.32754e-11
-6.57626e-11
-1.14543e-10
1.23578e-10
1.03124e-10
-1.16181e-11
7.60162e-12
-4.90032e-11
-4.76286e-12
-2.50754e-11
-46.901
-28.3691
-14.6834
77.3277
20.393
-19.6318
13.3866
-14.2351
14.9256
48.462
-59.0441
3.76913e-11
1.73509e-11
4.59109e-06
-1.91872e-06
2.25565e-06
0.099053
0.00752726
-0.436309
0.86491
-0.177201
0.12447
0.469758
55.2678
-30.2752
-79.1658
7.51857e-05
5.48243e-05
-2.71727e-05
-1.3648e-05
20.0951
10.0082
8.20429
2.44503e-10
-4.70529e-11
-1.21408e-10
-1.1099e-10
-6.44776e-11
-3.13895e-10
2.44925e-12
2.12404e-10
-7.7811
48.5897
-23.6472
20.2195
98.1582
-39.0556
-86.9026
5.65698e-09
8.52191e-10
2.58739e-08
-7.80745e-09
-2.84983e-11
1.35958e-12
3.2633e-12
-1.52442e-11
1.50585e-10
-2.75487e-11
1.62106e-10
-2.62668e-11
1.28582e-11
-9.36203
-5.76514
-16.697
33.413
1.61377e-10
1.37772e-10
-1.0901e-10
-3.50785e-11
-4.48978e-11
-5.94212e-11
7.08959e-11
-2.85791e-11
-14.1095
67.2363
-0.324708
0.26988
-0.0548665
0.588465
-24.3188
-50.7226
26.2749
-5.30251e-12
1.07159e-10
-4.20804e-11
1.49356e-10
25.8126
-13.0552
-5.91208
-19.5489
18.4837
-18.3682
-4.57507e-11
1.36081e-10
7.72338e-11
6.10242e-11
-22.6352
20.106
2.04531
2.29154
-8.77812e-11
-7.75911e-11
-3.82768e-12
-2.93353e-11
20.7703
-13.3002
-11.9216
13.0408
5.67381e-07
1.00879e-07
-1.6163e-07
-8.87655
3.59717
-4.4548
23.5695
4.3829
-13.4386
-3.83744
53.0152
3.17029
3.54403e-11
4.83551e-11
-2.84429e-11
6.73923e-11
1.05693e-11
-1.22666e-10
4.92588e-11
-6.84948e-12
-1.57501e-10
-1.27701e-11
2.26988e-10
2.79022e-11
3.30655e-10
3.70903e-11
-1.23379e-10
-3.98067e-11
-0.0166169
-0.0479391
-0.238643
0.826136
0.0120523
-0.00100588
-0.001829
-2.59321
9.79214
-3.66093
0.959118
5.2718e-05
0.000776539
-0.00045986
3.82338e-11
1.97501e-11
-3.32891e-11
-7.18878e-11
-59.3482
86.4967
7.67871
-3.97868e-12
-3.58789e-11
-8.18421e-12
-8.23575e-11
-3.34855
-9.21425
7.42212
23.6601
-26.5164
10.5724
7.82849
-3.30801
-32.58
-16.5593
2.49472
11.2481
0.868306
4.35356
-2.25432
-2.10325
7.32487e-11
1.1623e-11
-2.36404e-11
-7.18275e-11
-8.23454
14.1897
0.1946
-1.01185
-24.917
22.2321
-25.4644
25.7213
3.31846
-4.50863
-9.45221
10.6296
-0.890798
68.5624
-24.8041
-48.1014
12.635
-6.1873
19.3214
-11.7753
17.7034
-27.4129
-14.9115
29.0533
6.11055e-13
5.59723e-11
-3.39042e-11
-1.67978
-10.4231
15.4451
3.81841
-19.089
9.83984
13.2103
-0.0711037
0.120175
6.54667e-11
1.95259e-10
8.91423e-11
9.47122e-11
-48.7506
-19.6809
0.000480124
0.0511002
-0.0184765
-0.00312369
12.6003
-9.87548
14.9654
-21.8476
9.87475
-8.16056
-13.9583
41.0269
-20.6091
2.75945
-1.01408
-2.51692
23.2701
-46.27
20.1564
-120.301
-522.861
-132.657
674.763
-35.576
33.8408
-11.7278
7.00749
-1.93833
23.7796
-21.3503
-5.54653e-11
3.17415e-11
-9.12798e-12
0.0403458
-0.0596019
-0.0221392
0.12527
243.15
-101.182
-7.35566e-11
-1.0913e-10
5.50241e-11
0.670539
-0.110209
3.62115
-2.0648
8.38757e-12
-5.65438e-11
3.70567e-11
1.47857e-10
-2.61717
19.7616
41.7
-70.0923
2.18665e-10
-3.17268e-10
1.4949e-10
-7.18218e-11
4.28407
24.0522
-9.27212
-6.63892
2.0641e-10
9.42682e-11
1.40998e-10
1.49473e-10
-2.02572e-11
-8.87433e-12
1.443e-11
1.24493e-10
18.7713
4.8969
-16.3237
1.7026e-10
-8.88026e-11
-2.03326e-11
3.39154e-12
1.06113e-10
-1.74183e-10
2.00253e-10
2.54333
-11.6455
-2.01718
22.5653
-94.5604
-231.565
95.3896
-85.5561
-132.309
8.84596
-0.817661
1.03837e-10
1.6546e-10
-6.01088e-11
-2.33221e-07
-2.46561e-07
3.11982e-07
8.51421e-07
-44.3423
34.8396
-88.0395
98.3569
-3.66043
-4.72811
-42.4066
23.4178
-4.79251e-12
1.12406e-10
-8.38236e-11
-0.00156814
0.00157498
-0.00130412
0.00429889
1.33511
11.1341
-8.73887
1.84326
-3.09416e-11
5.76423e-11
-1.16085e-10
-1.20937e-10
2.87814e-11
-1.29113e-10
1.76213e-11
-1.16986e-11
-9.63509e-11
-1.70184e-11
6.15237e-11
-1.93128e-10
-45.4304
-12.57
7.23095
49.2377
2.5566e-11
-8.64087e-12
-1.86548e-11
-11.794
18.6531
-9.62237
9.45743
32.8261
-48.5608
38.8247
-19.4177
-16.7933
-9.57118
45.7179
-5.6174e-11
7.52409e-11
-1.01914e-10
-6.55419
23.7214
0.578561
-11.5133
11.7301
11.1398
-11.1764
-5.19469
-1.96555e-11
1.16817e-10
3.80459e-11
3.16699e-11
-46.7211
-29.0096
29.2503
37.7981
-5.92398
4.6229
1.60855
3.02888e-11
-2.71954e-11
2.92825e-11
1.22886e-10
-9.43902e-11
5.48907e-11
4.46382e-11
7.83654e-11
1.05464e-11
5.18441e-11
2.98463e-10
4.00328e-11
9.71247e-11
1.01697e-10
-3.02031e-10
7.04532e-11
1.09572e-10
-1.07946e-10
38.8721
11.1164
-14.7388
-45.5161
-0.287579
-0.700117
-0.418426
2.44648
-1.32479e-11
8.15522e-11
-0.184296
1.75197
-0.262084
25.8236
13.9343
1.74258
-51.6671
2.2135e-11
2.81129e-10
1.65821e-10
4.52867e-11
-5.98923e-11
-3.45048e-11
-2.31859e-11
-4.82443e-11
8.4746e-11
4.70717e-11
-6.3079e-12
-6.28035e-12
6.41517e-11
3.62373e-11
15.2304
2.36502
-3.98294
-9.28718
1.44725e-11
-7.40289e-12
-2.17904e-11
1.0065e-10
6.43818e-11
7.06414e-12
-7.29348e-11
-2.79023e-11
1.28715e-11
-1.0468e-10
6.71058e-12
4.43866e-11
-7.42108e-11
-1.60579e-11
-5.56262e-11
-5.43007e-11
6.23077e-11
-6.37049e-11
-1.61689e-10
-1.18625e-10
6.82063e-11
-1.17382e-10
1.02771e-10
-4.33122
1.3922
18.2519
-8.86561
62.7268
-148.589
-63.7464
136.633
-4.11231e-06
8.47127e-06
-1.68477e-05
5.53626e-05
-8.0314e-11
1.08955e-10
-3.67623e-11
-1.16208e-10
-2.19072e-11
-42.9393
-18.6641
43.2006
13.1915
-9.08482e-11
8.4696e-11
6.09294e-11
-2.69803e-11
31.0278
-0.31341
-9.879
-15.0596
10.7356
7.62734
-68.9663
36.2835
-1.80899e-10
4.0328e-11
1.29185e-10
-58.1197
-5.7189
59.0569
-0.967705
-8.30827
1.90388
2.72147
5.18043e-11
-1.14739e-10
-6.77116e-12
-7.39988e-11
5.75267e-07
-9.72815e-09
-1.9114e-07
-1.02532e-10
5.058e-11
-10.5496
38.4969
-4.46175
-22.1803
3.44602
-2.257
11.5226
-6.17305
0.115845
-0.0167005
0.0716114
-0.0681902
21.6238
-2.25489
-2.54387
-16.7524
-47.648
10.293
22.937
8.29486
9.79183e-12
-1.00793e-10
-1.74106e-12
-1.09507
-7.61721
6.80061
7.80502
-6.7064e-11
-4.51245e-11
6.41434e-11
1.99397e-12
1.56087e-10
7.16272e-11
-3.30953e-11
-2.45852e-08
2.21101e-07
4.36021e-08
-6.70385e-08
4.96784
16.0687
-17.4414
-3.58464
-1.56214
3.44934
-0.0682442
0.0365032
0.442444
-0.147367
7.1125e-11
9.86823e-11
-5.1452e-11
1.31716
-5.24962
-10.9963
22.9199
-20.6181
0.136125
0.938294
0.581545
-0.515748
-4.21276e-11
-1.00737e-10
4.66552e-12
-2.64096e-11
-20.4155
-24.4139
20.7062
20.5008
-22.5233
-13.8047
-26.9773
20.1438
2.8634
3.98526
34.7129
-30.4509
-46.0897
86.0732
5.5945
-93.6192
25.1517
0.766851
-28.2145
8.29294
-7.79206
-1.66158
1.21821
3.10616
-10.654
8.21701
-0.635959
-20.2498
29.2233
-28.4905
0.132658
1.40356
-0.546293
-8.30648
9.30648
6.21233
0.00802267
-0.00163485
-0.000265571
0.000717458
1.97612
-4.92314
-22.6081
1.1961e-10
2.33342e-11
6.23191e-12
-73.4535
-29.8489
102.121
5.20247e-11
3.79072e-11
-2.07931e-10
-30.7339
20.1983
23.3891
-11.6867
-20.5229
-3.14968
-4.17037
-1.18084e-05
-1.46841e-05
1.88047e-05
5.48742e-05
1.75391e-10
-2.01734e-12
2.58901e-10
-1.45393e-10
8.7919
95.2348
-113.433
1.21286e-11
-5.85027e-11
-4.63297e-11
-1.31308e-11
-31.8358
-17.2889
-298.343
82.7155
242.006
-37.6375
27.3296
27.4952
-1.18953
-62.5611
2.17311
3.0068
-0.405652
-4.78703
-35.9219
-3.74939
1.0904
47.88
-7.41194
-2.33346
13.3251
-3.61091
-0.00687538
0.0719578
-0.0219557
0.0102987
-9.56019e-11
8.76309e-12
-1.49303e-11
1.99867e-11
9.61096
-14.9384
-36.1176
45.7596
-1.65403e-07
-5.28246e-08
7.13766e-07
-4.27111
10.7754
0.117192
-6.64474
-5.80426e-11
-6.86254e-11
8.90737e-11
1.17306e-10
7.01021e-11
8.06936e-12
3.80977e-13
1.9559e-11
25.5015
-5.36238
-3.83053
-6.29758
4.54691
-119.21
111.057
-0.007133
0.015337
0.005328
7.89393
-1.70973
-1.43025
-1.4039
3.63067
12.4275
0.000874464
0.000443394
-0.000362599
-3.94187e-05
-7.49222e-11
1.09386e-10
-4.53131e-11
44.104
138.49
-112.21
-78.8291
18.7009
240.393
-155.836
-114.953
5.07772e-11
1.35318e-10
2.6997e-11
-6.64917e-11
-5.92147e-11
2.46072e-11
4.39512e-11
-2.0187e-11
-9.73748
-19.949
0.388355
33.7416
13.829
-27.8313
7.29804
125.1
-65.1418
8.04903e-11
1.51007e-11
1.21035e-10
-13.8653
-7.51869
6.14226
4.75791e-05
1.25202e-05
-9.83523e-06
-5.81001e-06
-7.0854e-12
1.03695e-12
2.01998e-10
5.18791e-11
-1.58599
-37.8371
-26.422
63.2322
-1.5318e-07
4.95745e-07
2.44967e-08
-7.72273
0.420955
5.794
-27.7745
-111.272
132.873
-1.1638e-10
1.07501e-10
-6.52595e-11
1.73239e-10
-2.6129e-11
-47.3755
24.8232
3.74562
19.861
9.04744
15.9023
-16.1609
-4.03723
2.4164
1.64456
9.38801
-6.95497
-37.5475
192.633
-150.786
-8.29136e-11
1.2824e-10
2.24678e-10
-1.47556e-10
1.83914e-10
-4.30013e-11
-7.31114e-11
-8.97205e-11
-3.43816e-11
-2.18802e-11
5.84547e-12
9.54688e-12
6.9855
8.44446
-13.7187
-1.52316
3.82652e-07
-6.00746e-08
-8.34788e-08
1.5381e-08
-1.28372e-10
-3.50329e-11
3.27875e-11
-6.87536e-11
-8.35567e-11
-1.41616
5.4928
-0.186578
-1.41219
12.2209
-12.378
6.85274
-0.645489
-25.021
8.15409
-1.02422e-10
-2.90437e-11
-1.26512e-10
-0.000802815
0.0021016
-0.000270205
7.79158e-05
-2.61443e-11
-1.49263e-11
26.9164
-76.9696
-6.50991
101.535
-40.1811
-66.8553
-4.5022e-11
5.90972e-11
1.76096e-10
4.11621e-11
-36.6827
75.7568
-33.4201
18.6393
-110.362
89.2069
-23.7419
9.13652
1.37926e-11
1.10484e-11
-1.75316e-11
1.01716e-06
-1.46111e-06
1.65012e-05
-4.0623e-06
-116.802
128.456
51.3192
-65.0716
-38.512
-28.3478
78.9275
16.2574
55.8516
-18.2183
-31.3469
-16.2908
32.9391
-222.686
265.181
-60.0473
-3.83608e-11
5.80267e-11
-5.97093e-11
-248.712
247.357
-0.341152
3.05686
28.2313
-21.3252
-0.927355
-8.69304
288.699
-271.849
-198.064
184.184
8.36127e-11
-9.23358e-11
-1.44465e-10
1.05878e-10
1.00875e-07
3.8819e-07
-1.19496e-07
1.0126e-10
-4.01981e-11
1.32636e-10
-1.25418e-10
9.2784e-11
1.56156e-10
2.94685e-12
1.1749e-11
7.14444e-12
3.36312e-11
-1.24303e-10
9.02389e-11
200.895
-173.342
-5.4545
0.595532
-6.16717e-13
-4.57306e-12
0.00626604
1.55604
-0.390921
-3.17198e-11
1.50824e-10
1.50747e-10
1.86814e-10
0.186496
-0.388624
6.42541
-2.3558
5.16162e-11
1.58658e-11
3.47895e-11
-7.50576e-12
-76.1482
-0.00590332
0.012864
0.00535653
-0.000455474
4.5507
-83.7242
94.941
-17.3407
-114.798
127.384
10.6226
-9.17249e-12
3.95149e-11
-1.05452e-10
20.4096
3.45424
-7.36266
6.18148e-11
-3.55228e-11
1.42548e-10
1.76938e-11
51.7286
-56.9901
-275.068
298.145
-131.971
132.968
-10.8956
-7.83373
9.62376
-1.7088
-6.58024
35.8856
-20.4646
-5.87966
-27.753
-100.182
1.06899e-08
8.05085e-09
-6.4804e-08
3.46104e-07
-1.12267e-11
7.61103e-11
-1.35072e-10
7.48628e-11
40.8286
-5.36246
-29.8648
-5.74087
-91.7079
-36.1719
72.1621
57.4305
-7.36862e-11
7.5186e-12
8.00554e-11
-1.32501e-11
1.63658e-11
-7.54269e-11
-0.166291
-0.0748439
0.249604
0.240748
-1.52473e-11
-3.29968e-11
-160.358
6.85043
156.493
-2.29606e-11
1.098e-11
-3.94328e-11
-9.86566e-11
5.73029e-11
-1.83374e-10
-2.95049e-11
-2.58288e-11
-1.7228e-12
-1.27662e-10
-5.4455e-12
-9.25176e-11
-2.69159e-08
2.58441e-07
-8.61031e-08
-16.5897
-34.345
45.0608
-1.46896e-10
-5.34686e-11
6.77358e-11
-4.2507e-11
3.22496e-11
9.72521e-11
3.55072e-11
5.6461e-11
-93.1503
-231.851
167.229
151.536
172.083
-46.4164
-63.8772
-67.2721
-3.55169
-29.6247
3.04345
27.5037
-3.25046e-05
0.000242952
-6.51128e-05
-3.03951e-05
4.22873e-07
3.0232e-08
-8.66801e-08
-6.14346e-08
-6.1001e-12
-8.65013e-11
-7.41342e-11
-34.837
14.1073
30.7807
2.74434e-11
2.75147e-10
-8.7495e-11
-1.06253e-10
2.04312e-11
1.70916e-11
2.20797e-11
-3.50799e-06
-2.93985e-06
1.29667e-05
3.90626e-06
-4.49053e-11
-1.49711e-10
-1.29496e-10
1.19299e-10
-1.92078e-11
-9.44675e-12
1.02087e-10
-4.71124e-11
-4.35456
-23.6165
50.6738
-22.7704
-84.0469
26.0395
86.0601
-29.1756
3.71241e-11
-6.48383e-11
7.36481e-11
-5.95577e-11
-8.53987e-05
0.00047236
-0.000106303
14.3242
-11.99
-18.178
15.573
-6.00076
47.321
-15.7844
31.0585
9.89145
-17.876
-23.3739
7.02973
-0.927121
-2.4638
-1.1619e-10
-1.13264e-11
9.73517e-11
0.69809
-0.664113
-1.01834
2.30325
26.5243
-22.857
31.4648
-37.3047
-10.0906
-15.799
39.6915
-15.5582
16.1707
15.1706
-7.63281
-26.8806
20.6572
-10.939
-1.10626e-10
-3.33049e-10
-7.96549e-11
1.36859e-10
-290.817
123.897
113.246
47.4248
6.93711e-08
-2.03269e-08
-5.97395e-09
-6.23188e-09
-1.05159e-10
-1.60965e-12
1.80492e-10
-3.26184e-11
-57.3216
148.932
-94.7058
52.308
-44.6387
-72.8737
63.7657
4.67044
-1.00875
-2.282
-1.40085
5.40838
-14.2881
-1.31442
9.97078
5.97796e-12
-3.09056e-12
3.14892e-11
-3.35026e-11
-4.0565e-05
-7.9024e-05
3.5598e-05
0.000229771
-6.61049e-11
-1.57407e-10
7.11846e-11
4.29153e-11
-3.40999e-11
-4.26177e-11
4.08364e-11
-2.73182e-11
22.5762
-81.1599
93.1464
-35.8783
-4.6949
-2.04181
6.67369
-63.3763
-23.2841
-59.4998
82.368
-162.103
-40.9525
121.268
-18.2559
10.0745
-8.00679
13.1877
-2.00127
-12.8424
-1.40704
14.9089
16.5946
-132.597
49.9852
-5.19944e-08
2.79196e-07
-4.88806e-08
5.09057e-08
73.733
2.2714
-114.02
37.9096
2.72025
14.7306
-19.0674
-20.6018
-7.48366
-31.9783
-40.9597
-40.3202
-22.2183
63.7536
-5.33994
0.599657
-4.29726e-11
-1.02565e-11
10.881
-0.141111
20.4153
-2.28783e-09
2.8966e-09
-1.01981e-08
0.0284735
-0.0128123
0.0287769
-6.02302
1.09293
35.8039
-1.04276e-11
6.47257e-11
1.42783e-10
15.5301
9.6066
4.04126e-11
-1.03691e-10
8.20971e-11
1.59602e-11
7.79343e-11
6.2859e-12
1.42728e-10
6.59706e-11
-17.1526
22.7848
3.15853
1.4641e-10
9.22406e-11
1.65207e-10
-4.70805
12.7138
-16.7705
20.6573
-8.93256e-11
-2.10702e-11
9.78959e-11
-3.45714
0.448682
6.52454
1.41054e-05
2.73118e-06
-1.50835e-06
-3.92497e-06
31.8661
-23.4343
-3.41441
12.4596
-6.18353
7.89371
10.7135
9.01874
13.4973
-9.88807
-0.738306
3.42791e-09
4.77061e-11
-2.60599e-10
-8.03358e-11
12.3521
-2.42189
-11.0047
-2.15349
9.89865
-6.73202
-17.2174
20.0589
-0.0180973
0.246796
-0.0731307
-0.0172084
23.9455
7.95196
-26.1513
-3.95737
-4.65861e-11
4.87489e-11
1.34357e-11
-41.7734
9.87652
25.6734
5.09277
-29.6984
-33.0553
2.8636
-1.01261
-0.019812
-0.39085
11.4074
-10.8005
16.509
-2.88741
-1.42877
9.0021
0.150673
-3.72413
44.2437
-75.8817
-31.9322
54.0451
-3.41161e-11
1.96536e-10
-3.21871e-11
-14.8584
17.4474
1.50077e-10
7.9727e-11
9.01334e-11
-5.02869e-12
-1.66171e-10
3.48114e-11
-1.10064e-10
5.69603e-11
1.64977e-10
3.0563e-11
-8.07373e-11
1.47254e-11
-1.9881
-14.195
8.48991
7.66956
40.3135
-17.6747
-19.969
-4.02275e-11
-1.80777e-11
7.30768e-11
-12.7102
-1.76744
3.6177
2.46273
13.9133
59.957
27.4707
-66.7019
-34.0342
165.656
-16.4133
28.5831
-170.181
5.58752e-11
-1.92519e-10
-3.37177e-11
9.10935e-12
4.61925
12.259
-12.3366
0.0288301
-0.0135055
0.0470367
-0.0234326
-1.09991e-10
6.80547e-11
-2.87479e-10
-1.31844e-11
-2.61586e-11
9.95641e-11
-1.13957e-10
-13.6583
1.61679
20.1792
-9.3937
-14.7286
-9.02202
5.42288
3.42604
-20.3256
10.7034
0.858691
-22.905
10.3181
-1.26556e-10
2.76673e-11
-1.14254e-10
1.97588e-11
-3.2033e-05
0.000116137
0.000144188
-26.8613
-13.5848
8.90794
13.2375
-0.0844046
-0.0841498
0.205568
0.183776
-19.4126
31.345
-11.0425
10.172
-25.8361
1.83709
7.83513
-9.51039
13.0139
1.79226e-11
5.1589e-10
-9.95248e-11
-3.4893e-11
1.12588e-10
-3.58127e-11
-1.68798e-10
-23.0755
7.46415
25.4954
-10.0384
6.87149
-15.4105
21.2013
-12.7821
0.358313
-2.41317
4.56943
0.190891
-21.2822
1.81859e-11
2.76198e-11
-0.000108905
0.000632839
-0.000200512
0.00012648
-2.72908e-10
-2.14465e-11
1.85035e-11
8.26813e-11
-0.0550084
-0.0140499
0.125258
0.0688767
5.97022
8.04032
2.07286
-14.917
-39.1769
-7.20532
22.7682
7.05306
-34.656
-9.13
-9.22231
54.9437
115.506
-6.79196
-112.166
5.95979e-12
-1.03126e-10
3.92602e-11
3.91655e-11
-3.74569
5.27184
-16.5572
15.3832
6.10957e-11
6.95674e-11
2.12511e-11
-36.6586
26.4826
-27.2623
7.24406
0.414388
-0.648794
-3.0399
-16.746
-0.859518
12.5269
6.33631
1.00124e-10
3.45825e-11
9.47318e-11
2.2827e-10
26.6412
-25.4123
0.619319
-3.59156
14.6513
-4.78457e-09
1.223e-08
2.79093e-09
-9.31906
-4.2011e-06
1.27364e-05
1.20567e-06
0.835286
22.1688
-20.2125
-0.90287
23.8457
-18.5565
-3.31772e-12
-3.08347e-11
-5.92482e-11
-1.28912e-10
0.000112537
4.43715e-06
-6.45338e-06
-2.98931e-05
25.2356
-0.0213618
-14.4549
-5.52307
-2.15711e-08
-1.39941e-08
1.22035e-07
3.55421e-08
-3.96344
-0.238523
-4.76868
14.0526
0.013624
-0.00447661
0.00170568
-1.08506e-08
1.88739e-08
1.01951e-08
-5.15193e-09
14.4021
-225.21
-13.9446
35.3499
-20.1019
28.2424
-8.89108
8.00571
69.1749
-182.074
-20.7596
131.44
2.41657e-11
-8.49804e-11
2.90861e-11
8.33869
-8.33356
-3.02092
55.4835
-40.2482
-13.7919
-5.99922e-08
8.00335e-08
-1.17778e-07
3.88776e-07