/*--------------------------------*- C++ -*----------------------------------*\
| =========                 |                                                 |
| \\      /  F ield         | OpenFOAM: The Open Source CFD Toolbox           |
|  \\    /   O peration     | Version:  2312                                  |
|   \\  /    A nd           | Website:  www.openfoam.com                      |
|    \\/     M anipulation  |                                                 |
\*---------------------------------------------------------------------------*/
FoamFile
{
    version     2.0;
    format      ascii;
    arch        "LSB;label=32;scalar=64";
    class       volScalarField;
    location    "0.15";
    object      alphat;
}
// * * * * * * * * * * * * * * * * * * * * * * * * * * * * * * * * * * * * * //

dimensions      [1 -1 -1 0 0 0 0];

internalField   nonuniform List<scalar> 
32842
(
0.000849507
0.00085022
0.000849624
0.000849623
0.000960719
0.000849623
6.76941
8.4279
0.000849623
0.000849623
1.16189
1.32449
0.000849623
0.000849623
0.000849365
0.000845485
0.000849623
0.000849623
0.000849189
0.000957327
0.000974119
0.000966741
0.000953407
0.000849624
0.000949982
0.000849623
0.000849623
0.00091881
0.205443
0.000849623
0.0718802
0.658639
11.9673
0.000849623
13.3605
11.3038
0.000951763
0.000849624
0.00084962
0.000849611
0.000849623
0.000972766
0.000849623
0.000849623
0.469594
0.000849623
0.018332
0.000849605
0.000967881
0.0908214
9.19992
0.000849623
0.818772
0.050103
0.000849624
0.000749951
0.000849623
0.0531128
0.000849623
0.000849623
7.01403
0.786975
0.876291
0.000973594
0.000849612
0.000665181
0.000849623
0.965926
0.608932
0.000848966
0.000914804
0.0118707
0.692533
0.000849623
0.000849623
0.000849399
0.152668
0.000849623
0.690702
1.13091
0.0009594
0.000849623
0.000849623
0.767556
1.07452
0.000849623
0.000849623
0.0011304
0.148626
0.000849623
0.000960966
0.000967415
0.00856738
0.000849601
0.000849623
0.000849621
0.671657
0.000849483
0.99566
0.000849623
0.000849623
0.000984335
0.000852129
0.0906266
0.686943
0.630284
0.302622
0.000852032
0.736652
0.000850153
0.000849623
0.000849623
0.0050683
0.000849623
0.000852855
0.000969852
0.752548
0.186941
0.000851905
0.000849617
0.000849623
0.000849623
0.0202268
0.000849624
0.000849712
0.683593
0.551638
0.000849623
4.12566
0.000849624
0.000849623
0.00085143
0.00100312
0.690248
0.000982386
0.00084501
0.000851181
0.0799381
0.000849606
0.000848583
0.73731
0.000849623
0.73223
0.000880669
0.000849103
0.000849623
47.4591
0.000849623
0.000849623
0.000849623
0.000851282
0.240398
0.000937728
0.0357075
0.000845136
0.000849623
0.000849623
0.000849623
0.000849088
0.000849623
0.000849396
0.000849623
0.000950874
0.000849623
0.000846303
0.000849623
0.000849623
0.000849623
0.000849616
1.16037
0.000869947
0.000970599
4.88943
0.000849623
0.000976505
1.77674
0.000849623
0.000851299
0.000849623
0.000849623
0.000899103
0.000849623
0.000849623
0.000849623
0.757144
0.000849623
0.700535
0.000849623
0.000849612
0.000849623
0.000849623
0.155711
0.597233
0.000849623
0.6202
0.000849623
0.000849623
0.000849623
0.669917
0.000849623
0.000849622
0.000849624
0.148781
0.0356798
9.16061e-05
0.00130934
0.000849607
0.000974045
0.625999
0.000849616
0.000849461
0.000845887
10.2819
5.78903
0.000849623
0.000849623
0.000849619
0.000849619
0.000849592
0.000844649
0.159659
0.000849623
0.000849623
0.000849572
0.000984472
0.525403
0.000849623
0.646416
0.000849419
1.20128
0.000849623
0.000849623
0.000849623
0.000849623
6.27388
0.000958482
0.000962119
0.000855445
0.000849622
0.785033
0.0117505
0.000849623
0.00084961
0.035061
0.000849364
0.000849623
0.830157
0.000849623
0.000849623
0.000849624
0.000849623
0.000849623
0.000844567
0.670771
0.000849624
0.000849623
0.000849623
5.12052
0.000849623
0.000849623
0.000849623
0.000849623
0.000849623
0.000849623
0.51297
0.000849623
0.000849623
0.000849623
0.000849624
0.000849624
0.000849623
0.67404
0.000849623
0.520129
0.000849623
0.0361383
0.000849619
0.000968663
0.000849623
0.000849606
0.000849623
0.000292388
0.00316794
0.000849623
0.000849341
0.0010001
0.000882145
0.000849623
0.000973908
0.000849623
25.5298
0.000849623
0.606044
10.939
0.16169
0.000849794
0.601474
0.000849623
0.000849624
0.000948849
1.31651
0.000849624
0.000849623
0.000849624
0.000849623
0.000849623
0.000849623
0.000849623
0.000849623
0.793258
0.000849624
0.000849623
0.779845
0.000849623
0.000849623
0.000849623
0.000849623
10.0079
0.000849623
0.000849623
0.00084962
0.00595142
0.000849623
0.000887945
0.000849624
0.000849623
0.000849619
0.000849624
0.000849489
0.000849623
0.000849611
0.705017
0.000849623
0.000849623
0.000849623
0.000849623
1.3125
0.611089
0.000849623
0.000849623
0.000849623
0.000849587
0.000851971
0.000849623
0.790309
0.000849623
0.000849623
0.639599
0.909121
0.726293
0.000848027
0.00138691
0.000848959
0.669365
0.000849623
0.000849624
0.00095169
0.000849622
0.000849623
0.000849619
0.000849623
0.000849623
0.000849623
0.0681003
0.000849623
0.000849569
0.000849623
0.000849623
0.000852716
0.000945001
0.000849623
21.5248
0.000849623
0.000966099
0.000849623
0.740259
0.000961857
0.000849623
0.000851514
0.000952184
0.000849418
0.803
0.68456
0.000849623
0.000849621
0.000849624
0.000849623
0.000849623
0.000849623
0.000849623
0.000849623
0.000849623
0.000849623
0.000849623
0.000848662
0.000849623
0.000849436
0.000849612
0.00084962
0.0008469
0.177794
0.000849623
0.000849537
0.000848883
4.53337
0.000845213
0.000849623
0.000981701
0.000849623
0.000951413
0.548492
0.000849623
0.000849623
0.000849181
0.000849623
0.000849583
0.000849591
0.000849497
0.000847543
19.6387
0.000847448
0.69296
0.000849623
0.000975513
3.71713
0.000849623
0.000849623
0.000849623
0.000841141
0.000849623
0.000849516
0.000849623
0.000849623
0.702992
0.000958562
1.3386
0.000849517
56.8076
0.00214719
0.744775
0.00097312
0.0406502
0.000954204
0.758668
0.000849624
0.00084958
0.000899665
0.000849624
0.000941907
0.000851938
0.000849624
0.000849623
0.000848639
0.00113926
0.000935312
0.000849623
0.000849564
0.000964625
0.000845771
0.000849594
0.000849582
0.000981022
0.000849623
0.000849623
0.000849623
0.00084486
0.000849623
0.764014
0.000849623
0.00085194
0.000849623
0.000982952
0.000962097
0.000849623
0.000849568
0.768055
0.714219
0.000849623
0.000849623
0.000849623
0.000849623
0.000959831
0.00084954
0.027825
0.766237
0.000849623
0.000849624
0.976222
0.000850708
0.000849623
0.000954659
0.000852393
0.000902676
0.000846405
0.727278
0.000975402
0.58361
0.769953
0.000852013
0.000849623
0.000967962
6.48162
0.000845332
0.72099
0.000962411
0.991709
0.000936044
0.000849623
0.0622559
0.000961382
0.000849623
0.695173
0.000849623
0.682615
0.000849623
0.000849623
0.000959238
0.000972415
0.110265
7.21794
0.15342
0.00198463
0.0331925
0.0103366
0.00976296
0.743667
0.000849553
0.000849623
0.000849592
0.766741
0.167265
0.893364
0.00607102
0.000846657
0.000849623
0.000937806
0.152993
0.000849624
6.19134
0.00360437
0.000846579
1.25616
0.00083658
0.000288666
0.000849624
0.000849623
0.000847729
0.7314
3.41949
0.000849623
0.00098418
0.000849623
0.173417
0.606574
0.000849623
0.000849515
0.000849623
0.000849623
0.0141849
0.00426469
0.000849623
0.000849623
0.000845009
0.674165
0.0260363
0.959569
0.000849509
0.000849623
0.000849623
0.0228557
0.777694
0.584772
0.18201
0.597508
0.000849623
0.000858284
0.598869
0.000849578
0.076888
0.000849623
0.000960738
0.000849623
0.000850368
0.000962995
0.000952359
0.000849623
0.000849623
0.000849623
0.00084896
0.775708
0.000976902
0.000849623
0.000849621
0.018051
0.000849623
0.00101561
0.174911
0.916756
0.000849507
0.000849623
0.0426156
0.142357
12.5174
0.000849621
1.33483
1.10359
0.0109283
0.000852817
0.0621128
0.000849623
0.000849623
0.000849624
0.000849623
0.000849623
0.0926917
0.000964715
0.000849623
0.000849623
0.000849623
0.000849623
0.000849623
0.000849623
0.000847595
0.149735
0.949479
0.000848581
0.000849623
0.000115929
0.116475
0.0758981
0.000849623
0.201105
0.000849623
0.000849623
0.000849623
0.0560106
0.693939
0.000849623
0.000956028
0.000849623
0.196031
0.000849623
0.000849623
0.000849623
0.000849624
0.338918
0.000849623
0.000849623
0.0217463
0.0966601
0.000846813
0.000849623
0.000849623
0.610869
1.08195
0.000849623
0.702082
0.000957048
0.000849623
0.000849623
0.0239431
0.00252101
0.000849623
0.980201
0.223955
0.000846508
0.00079712
0.000849623
0.000849623
0.000968417
0.000962307
0.000850405
0.000845065
0.0422897
0.000849623
0.000557655
0.000849623
0.000849623
0.164394
0.00229104
0.00642079
0.00234052
0.000849623
0.000849623
0.000944246
0.000954399
0.0126118
0.288819
0.00539604
0.000967557
0.000848233
0.000850128
0.000380959
0.000849623
0.0683724
0.00084962
0.000849623
0.855131
0.373422
0.000849606
0.000849623
0.000849623
0.000849623
0.000849621
0.000849623
0.000849285
0.000849623
0.000849623
0.796518
0.000849623
0.000849624
0.000849623
1.25062
0.000849623
0.000849623
0.000849517
0.601828
0.000849623
0.000849602
0.00084946
0.000849623
0.000849622
0.000849623
0.000846993
0.000849623
0.000849623
0.000849623
0.000849594
0.000823344
0.000849523
0.00096734
0.000895561
0.000980862
0.000849623
0.000964002
0.000968165
0.580366
0.000849614
0.000849608
0.000939145
0.095057
0.000849623
0.533271
0.000953205
0.000849623
0.000849623
0.000851335
0.000849622
0.000849623
0.813887
0.000849623
0.000849623
0.000849615
0.000973629
0.678491
0.000849608
0.000955418
0.000849623
0.000943226
1.5617
3.105
0.000946505
0.000849623
0.907389
0.000849623
0.000849623
0.000849623
0.000849596
0.000849622
0.000849623
0.207589
0.000849623
0.000851338
0.818931
0.000955916
0.000849623
0.000849642
0.000849623
0.905621
0.000984575
0.739343
0.00084799
0.596512
0.538892
0.000962674
0.000849624
0.000937516
0.000849623
0.000982675
0.000849623
0.000849623
0.000970667
3.09247
0.665955
0.000849623
0.000714226
0.000849562
0.563498
0.000847296
0.000849623
0.000849623
0.000849623
0.000849621
0.000849623
0.000849622
0.000849623
0.000849623
0.000849614
0.000849619
0.000849588
0.671736
0.000845024
0.160897
0.000849545
0.000849473
0.000962046
0.0143544
0.000849486
0.000849615
0.000971613
0.000849623
0.000849712
0.000849624
0.000986082
0.901481
0.000849623
0.000849623
0.000849322
0.000849573
0.000849623
0.00084828
0.000849623
0.000849623
15.1853
0.000849623
1.08156
0.00084897
0.000849623
0.000845684
0.000846646
0.000946367
0.000849611
0.000849623
0.000849623
0.000849623
0.184077
0.000849623
0.000849515
0.728708
0.000849544
0.68007
0.000849623
0.000874812
0.000849623
0.000849623
0.922806
2.27016
0.000849589
0.000848548
0.277122
0.000936316
0.000849623
0.000849623
0.000849623
0.000849623
0.000849623
0.670014
0.326725
0.694143
0.000849623
0.744787
0.000849623
0.000849622
0.000849618
0.000885017
0.000896977
0.000849623
0.000849459
0.000849623
0.000849289
0.000850197
0.000849623
0.000849622
0.000849622
0.000846023
0.00282438
0.000958334
0.000849623
0.164991
0.169987
0.000849623
0.000802274
0.101422
0.000849623
0.000849623
0.000849599
0.523778
0.000849623
0.000849623
0.6508
0.000967336
0.000849623
0.000849623
0.000849623
0.000849623
0.000896502
0.175036
0.000849623
0.000849623
0.576697
0.000849623
0.000849623
0.733379
0.000849523
0.000849623
0.000849624
0.000849623
0.664095
0.000849377
0.000849549
0.000849623
0.000849624
0.000949391
0.000849623
0.576007
0.00096141
0.00158812
0.000849623
0.000849623
0.000849623
0.000849621
0.000849591
0.000849623
0.133024
0.175842
0.000933522
0.00199296
0.000849623
0.000946243
0.000849623
0.000849623
0.000849623
0.000849623
0.000849623
0.000849623
0.000849623
0.000849623
0.000849563
0.000849623
0.276535
0.0008496
0.9498
0.000849597
0.791173
0.76821
0.000849623
0.000950998
0.774688
0.076363
0.00731736
0.0011875
0.000849409
0.000849624
0.000849623
0.000849624
0.0712102
0.000849624
0.171496
0.0205887
0.00399681
0.00689605
0.000897723
0.000736019
0.000849623
0.000865927
8.97879
0.000849623
4.4992
0.000852828
0.000847402
0.000849623
0.000849623
0.00124027
0.000849617
0.715401
0.000965382
13.3168
0.503965
0.807003
0.000954861
0.000849623
0.000849613
0.000848878
0.000849622
0.000848705
0.000849623
0.000849623
0.000849514
0.0629823
0.00098037
0.000848752
3.62795
0.000848667
0.000849313
0.000846561
0.000849612
0.0599125
0.156274
0.00084962
0.000849598
0.00084957
0.705197
0.111404
0.000849319
0.000855758
0.746696
0.0267953
0.000846324
0.000845281
0.752445
0.800537
0.000849623
0.000849623
0.000849623
0.000845085
0.000590608
0.000845728
0.528359
0.000849624
0.000849623
0.000849623
0.000848947
0.000850148
0.0125551
0.000849623
0.000849569
14.2873
0.143257
0.641733
0.000849623
0.00363227
1.03529
0.000849623
0.000849623
0.000849623
0.92917
0.000823166
0.000849623
0.00092476
0.000844906
0.000849623
0.000859458
0.000871341
0.000848447
0.000849623
0.000849624
0.000849623
0.000904074
0.000846032
0.000845791
0.000740588
0.000232257
0.000905608
0.000888688
0.000863168
0.000849446
0.793989
0.505789
0.000849602
0.884169
0.409684
0.000926805
0.000856603
0.14276
0.00033696
0.000849622
2.04747
0.650107
0.000790777
0.00084958
0.000849623
0.000849623
0.000849291
0.00084962
0.00084534
0.00084864
0.431273
0.000849623
0.000849623
0.00271307
0.000849623
0.000849558
0.347199
0.117418
0.000888399
0.000857736
0.000849579
0.148627
0.000851279
0.651048
0.000844949
0.000849565
0.000846961
0.0885592
2.74167
0.000952447
0.000854595
10.5065
0.00084961
0.0134257
0.000850916
0.000849623
0.153413
0.000999043
0.000845386
0.0047269
0.000848627
0.000849623
0.144191
10.0293
1.87901
0.000848708
0.000849598
0.000849623
0.000849171
0.000852627
0.000852478
0.00086022
0.000849623
0.000849623
0.00250597
0.000849573
0.000849617
0.0292673
0.000849623
0.000441076
0.00399471
0.000849623
0.000849614
0.000400475
0.00229272
0.000863373
0.0438357
0.000849612
0.00135709
0.137014
0.00101446
0.135936
0.000852295
0.843791
0.000849622
0.000849623
0.00084917
0.176105
0.00095437
0.000849544
0.0175702
0.637987
0.00118527
0.102619
0.000849623
0.0606818
0.148241
0.000849179
0.000849623
0.000849623
0.000860088
0.000849539
0.000849358
0.23807
0.000853131
0.00086154
0.000859398
0.00102225
0.000889467
0.000849613
0.000849618
0.000670945
0.340467
0.000849624
0.000851077
0.000849623
0.169523
0.000846788
0.156396
5.7729
0.00085163
0.247261
1.55977
0.00843419
0.0151594
0.125527
1.50922
0.000851766
0.769318
0.00011299
0.000852123
0.000931721
0.000849623
0.020763
0.000847652
0.000848913
0.000975019
0.0008514
0.665979
0.000859802
0.00095464
0.812192
4.28049
0.000848791
1.51248
0.000967277
0.817131
1.28315
0.000847004
0.000775396
0.282016
5.0288
0.000968418
0.000849623
0.810341
0.000849623
0.000936508
2.00848
0.00095361
0.000849575
0.649649
0.0717097
0.000849623
0.0103037
0.000849623
0.000849623
0.000849623
0.000848792
0.162953
0.000947019
0.000849623
0.136621
0.51271
0.000845524
0.000849317
59.0125
0.000849623
0.000849623
0.000846727
0.00089543
0.000853014
0.000849621
0.00706737
0.000849623
2.04241
0.279258
0.000853272
0.66813
0.306719
0.00494944
0.00113821
0.000849305
0.269778
0.000863982
0.13227
3.73335
0.000692766
0.000974803
0.000913567
0.000849623
0.146445
0.000849533
0.642182
0.000849623
0.00093313
0.000849422
0.000969929
0.000890548
0.116881
0.125941
0.000967959
0.000849428
1.33973
0.607894
0.000849623
0.000849623
2.71749
0.0812224
0.000849623
0.863222
0.000846539
0.000843194
0.000861393
0.868201
0.000845701
0.000849576
0.0049143
1.4984
0.000959193
0.000846898
0.000948378
0.000849623
0.000844523
0.115488
0.000849623
0.690506
0.616318
0.000846053
0.00457842
0.000849623
0.126822
0.976006
0.000849623
0.00100104
0.0218415
0.000849623
0.000849623
0.000845251
0.223054
0.000849623
0.000852708
0.000849527
0.000984873
0.000851994
0.000851726
0.00084988
0.000849623
0.000849614
0.000849555
0.000849623
0.000849623
0.000844583
0.000849619
0.00084962
0.0107067
0.000849415
0.000849232
1.41085
0.000849009
0.000849389
0.000849408
0.00084963
0.000849623
0.000973971
0.0026098
0.000849623
0.000847147
0.000852409
0.000852229
0.102656
0.22419
0.000978865
0.558694
0.695866
0.000849446
0.000849623
0.00552009
1.60011
0.000963009
0.87036
0.000847554
0.000849623
0.654661
0.000965275
8.99042
0.000946745
0.000996718
0.000932195
0.000849623
9.8207
0.000849618
0.000849624
0.000953103
5.5307
0.118507
0.511898
5.39347
0.000954
0.000945176
0.00150572
0.000849617
4.99548
3.26529
0.000949653
2.13438
0.000849623
0.0200754
0.000849623
0.000852226
0.000849624
0.00186932
0.000849623
0.00154025
0.000849254
0.000849582
0.000969401
0.000862025
0.164055
0.000851855
0.000849623
0.000849615
0.000897966
0.000849591
0.000849623
0.375532
0.000849623
0.348885
0.000849623
0.000849565
0.000847157
0.000847937
0.000848899
0.000849623
0.000742069
0.000849622
0.00166463
0.279705
0.000849483
0.000849503
0.000846099
0.000849621
0.000849449
0.000849623
0.0589139
0.000849622
0.000849623
0.000849623
0.000962481
0.530335
0.000849623
0.000849622
0.000849623
6.8404
0.000849623
0.000847999
0.00084741
0.000848554
0.000849621
0.791372
0.000849145
0.000849611
0.000848622
2.68688
0.000846431
0.000844983
0.000849623
0.782194
0.000850648
0.000852466
0.000852181
0.000849616
0.00085171
0.000849624
0.000869321
0.000849623
0.000848235
0.000841255
0.0050791
0.00485389
0.000844972
0.000786548
0.559115
14.7995
0.000849571
0.0589371
0.000852373
0.000945582
0.000844893
4.30195e-06
0.165472
0.000849623
0.000849624
0.000844341
0.000849475
0.000869257
0.0009656
0.000849623
0.000849623
0.000844663
0.000845344
0.00085051
0.0742496
0.000849347
4.16168
0.000479276
0.000849623
0.000852746
0.259606
0.000851983
0.000847376
0.000849623
0.000845099
0.635885
0.000849355
5.53584
0.000849623
0.0008518
0.000849549
0.8391
0.00095025
0.000849623
0.000849623
0.000849623
0.000849623
0.00085172
0.000849623
0.000856172
0.000849623
0.000851014
0.000848509
0.000976932
0.000849623
0.17491
0.8727
0.000849623
0.0722798
0.0560226
0.000954598
0.000846043
0.000849623
0.748503
0.000875338
0.111017
0.0820358
0.000849585
0.000849623
0.00103852
0.000849622
0.000858833
0.000849623
0.000849622
0.000970713
0.00352432
0.000849598
0.000849623
4.67401
0.000849623
0.00084962
0.000849623
0.000849623
0.391106
0.796374
12.3914
0.000849623
0.000849623
0.000849621
0.739854
0.000850674
0.0466599
0.88952
0.000967343
0.000849622
0.00084961
0.000849571
0.000849623
1.81123
3.01869
0.000849623
0.000849543
0.000849622
0.000849623
0.662428
0.000849623
0.743323
0.000849623
0.778074
0.000971979
0.000863098
0.000849623
0.000849623
0.000849623
0.000849421
0.000849617
0.000849557
0.000849623
0.637356
0.000849321
0.000881626
0.170706
0.000841508
0.000849623
0.00084901
0.000849624
0.000849623
0.00085216
2.52215
0.000849623
0.000849623
0.000849623
0.816419
0.000936702
6.20189
0.00610247
0.755139
0.705171
0.000975099
22.5775
0.000843865
0.62331
0.000849382
0.000849189
0.000972236
0.210925
0.0896852
0.00135414
0.000847112
0.702436
1.01767
0.000849623
0.000849623
0.000851392
0.000849624
0.000849619
0.00084961
0.000943285
0.296508
0.000849623
1.52111
0.0996728
0.000849623
0.000849623
0.000849623
0.000849617
0.000849623
0.000849623
0.000849623
0.000972944
0.000146535
0.000851683
0.00085563
5.04862
0.000852788
0.000917005
0.751787
0.000849573
0.000965998
0.000857164
0.000851396
0.000966203
0.000980118
0.000855049
0.92685
0.000851567
0.000597434
0.000849623
0.000849623
0.000851947
0.000845426
0.000846834
0.000849499
0.000849623
0.917071
0.000849624
0.000845802
0.000849568
0.000849623
0.000845728
0.000844995
0.000845808
0.000849426
0.846937
0.000849623
0.0008503
0.000849538
0.000845311
0.000849624
0.000849623
17.2773
0.000850051
0.000846428
0.55889
0.000851575
0.000849623
0.000849369
0.000855139
0.0021923
0.10013
0.000851474
0.000849623
0.000860377
0.00084933
0.000848472
0.000849484
0.0227831
0.000849566
0.000849623
0.000849623
0.0194906
0.000944253
0.000849612
0.000968578
0.00084955
0.861625
0.000949278
0.000847556
0.000847704
0.000849623
0.000849623
0.000847008
0.000849623
0.000849623
0.000849595
0.000979617
0.000849623
0.000849121
0.000852797
0.861114
0.000873183
0.000849624
0.000851424
0.000996885
0.00085119
0.049825
0.614982
0.0130229
0.000853178
0.000850732
0.000977031
0.000849623
0.00085192
0.000849624
0.0121825
0.541034
0.000973078
0.683153
0.995275
0.00084962
0.000849624
1.08983
0.000849623
0.000849623
0.0948455
0.000950489
0.000849612
0.000849623
0.000851805
0.000849623
0.00084962
0.000849579
0.000849623
0.000849622
0.860645
0.000849623
0.000849623
0.000849623
0.000849623
0.000849623
0.29496
0.250025
0.000978618
0.000849618
0.00095708
0.00114001
0.000849623
0.000849623
0.000849623
0.0113025
0.677809
0.00467506
0.000848601
6.04033
0.000849623
0.00084962
0.301491
0.56874
0.00084785
0.000849568
0.000849623
0.000849565
0.000849608
0.000849623
0.000848706
0.000848269
0.000852349
0.0321349
0.964998
0.000849438
0.00084948
0.0734809
0.000849533
3.97634
0.000849623
0.000952999
0.000849623
0.000849623
0.000849623
0.00075712
0.151542
0.000849772
0.000848852
0.000849623
0.000849623
0.000803808
0.000849622
1.1265
0.000944872
3.41448e-06
0.60137
0.000849623
0.153712
0.000849623
0.000849623
0.000849623
0.000849623
0.000849623
0.000849606
0.809442
0.000849623
0.00116352
0.000849623
0.000850988
0.00084554
32.5108
0.000849623
0.000849623
0.0979171
0.795069
0.000849623
0.000848986
0.000849623
0.000849622
0.00188933
0.000849623
0.794088
0.000848382
0.000849621
0.00120029
0.731895
0.000844594
0.000850127
0.000849619
0.000849594
0.000849623
0.000849623
0.0347948
0.000844846
0.000849623
0.000941679
0.000849623
0.000849623
0.000849623
0.000849623
0.000852068
0.00117101
0.000849623
0.00085224
0.000703373
6.6083
0.29239
0.000849623
0.000849623
145.48
0.000849623
0.000847565
0.0167035
0.000849623
0.0667731
0.159779
0.187197
0.746721
0.000849619
0.00084757
0.000849067
0.000849623
0.000847391
0.664852
0.000849505
0.634285
0.000849622
0.00208241
0.00300665
0.000849016
0.555198
0.000849608
0.000847452
0.000854316
0.00909863
0.930037
0.000849623
0.180973
0.000845021
0.000849623
0.000849623
0.00084541
0.000845559
0.000849623
3.87836
0.685765
0.000850936
0.000849622
0.000851257
0.000849623
0.000942474
0.000849623
0.000861036
0.000849623
0.000849623
0.000846945
0.00094797
0.000849621
0.000893033
0.582487
0.000844691
0.000844687
0.000849623
4.55349
0.000844585
0.000849623
0.000849575
6.04285
0.000849624
0.000849623
0.000849624
0.000852935
4.93618
1.84779
1.46226
0.000798408
10.7005
0.000849611
0.000845551
0.000850769
0.00087362
0.000848948
0.000849426
0.000924049
0.000905727
0.129574
0.000849599
0.000849622
0.720608
0.661943
0.322682
0.000849623
0.000849618
0.0146582
64.6845
0.00181833
8.09927e-05
0.0641621
0.000849623
0.000846306
0.000744046
0.000849623
0.000849623
0.000956795
0.276969
0.000784382
5.75599
0.74077
3.74167
0.000849599
0.0918197
0.00286215
0.000849612
0.000849621
3.77392
0.000853247
0.000849566
0.000849623
0.000849125
0.000852207
0.000875403
0.00085091
0.751733
0.000849623
0.000849623
0.000849612
0.000848123
0.000930083
0.00800737
0.000849147
0.000849623
0.000849623
0.024818
4.81747
0.000849621
0.0008448
0.000842177
0.000849588
0.000851935
0.000849623
0.000849623
3.41893
0.000853288
0.0611676
0.000849623
0.0919652
0.000849623
0.000859488
0.000870405
6.53376
0.000849623
0.00085305
0.000855774
0.000849623
0.000849623
0.000849086
0.000849623
0.000852055
0.000857839
0.00086515
6.12851
0.0976188
0.00165594
0.000957211
0.000951731
0.000960401
0.000994157
0.000849623
0.000849623
0.0009589
0.000849623
0.000941269
0.000849623
0.00084942
0.000844678
0.000949566
0.000849623
0.000852442
0.000985658
0.000849623
0.000849623
0.000845836
0.000849623
0.000845328
0.000849623
0.517836
0.000849623
0.000849619
0.000732877
0.000849623
0.574538
1.52481
0.694959
0.00107869
0.683354
0.391022
0.755604
0.000849623
0.000849623
0.000849623
0.605336
0.000849623
1.79358
0.000849589
0.000848812
0.000849623
0.000849623
0.000849623
0.000849574
0.00084962
0.000846921
0.000849623
0.799484
0.000849623
0.000849623
0.00111641
0.000852833
0.000849612
3.57368
0.576618
0.000849623
0.000849623
0.000849623
0.989887
5.34571
4.62636
0.000824461
6.15635
0.000849618
0.000849623
0.000849623
0.000846341
0.000849623
0.000849623
0.000946091
0.000849623
0.000849623
0.000849623
0.000851139
0.000849599
0.000849532
0.000846749
0.000849623
0.00567876
0.00256923
0.00352116
0.00494246
0.0734836
0.000849621
0.000849604
4.56598
0.000842831
0.000849623
0.171237
0.000964134
0.000849616
0.000848563
0.000996428
0.221962
0.0815839
0.000849617
0.000849623
0.000956645
11.2079
0.000849623
0.000849623
0.000849623
0.00571773
0.000859676
0.000852487
0.00100984
0.000849623
0.000849623
0.000849623
0.000849593
0.000849146
0.000848871
0.000849617
0.000849623
0.000849623
0.000849614
0.000849616
0.000849586
0.000849609
0.00085168
0.000849623
0.00588624
0.00085169
2.35447
0.000847427
0.692706
0.749318
0.00108378
0.00086325
0.000849623
0.0008465
0.000845789
0.153123
0.349654
0.589971
0.000852069
3.97982
0.0405858
0.000853763
0.000855222
0.000953517
0.000792234
0.00085293
5.18151
0.00557302
0.000822309
0.000849623
0.000849623
0.000846001
0.000844901
0.63753
0.00084994
0.00187391
0.000852362
0.000852117
0.000844424
0.000849571
0.000849623
0.000854825
0.000868152
0.000846127
0.000849594
0.998745
0.000784268
0.000849623
0.000849236
0.000843562
0.000848728
0.000849623
0.000849623
0.699471
0.000849623
0.000849623
0.000849623
0.000811765
0.000851489
0.000852315
0.000853765
0.000849622
0.000792897
0.000848209
0.000844636
0.000849589
0.000851778
0.053356
0.212415
0.000846685
0.000780906
0.000849466
0.000849222
0.00132475
1.19076
0.311731
0.00547074
0.910359
0.000849623
0.000395247
0.000849623
0.000849623
0.000849623
0.00085078
0.000849623
0.15265
0.00084962
0.26749
0.000854466
0.000846413
0.000849614
0.000964743
0.000851417
0.809827
0.000849623
0.00161293
0.000849623
0.000849178
0.000855878
0.000849623
0.000849589
0.398792
0.000849621
0.000849623
0.000849605
0.00136282
2.03497
0.000849622
0.0142949
0.000849623
0.000849618
0.000849616
0.000849624
0.000849623
0.000849596
0.000849535
0.000849623
0.000849623
0.000849621
0.00264661
0.000849623
0.00080119
0.000847423
0.00104803
0.000971186
0.175243
5.35394
0.000849623
0.000849623
0.00084962
0.0403018
0.000863072
0.000849623
0.000849544
0.000260068
0.000883304
0.000851339
0.111923
0.000869965
0.000849566
0.595693
0.619584
0.000852307
0.000849616
0.00084651
0.000850629
0.820297
0.000844889
0.000875494
0.000849623
0.000849623
0.128229
7.38064
0.000851499
0.000863014
0.0832497
0.000844406
0.000849074
0.000966356
0.000849615
0.217668
0.000948103
0.000941487
0.000974179
0.000848946
0.000849329
0.565878
0.00127637
0.000849531
0.000849617
0.000849581
0.000849623
0.000849623
0.000849623
0.653423
0.274231
0.273164
0.000849623
0.000849587
0.000849623
0.000847276
0.000849807
0.000848868
0.0008496
0.000850123
0.00933116
0.000849316
0.525934
0.649743
0.000849623
0.000847346
0.00084953
4.01191
0.000849623
0.000851654
0.000913544
0.792932
0.000847081
0.000849623
0.000849125
0.000849623
0.000851386
2.44445
0.000852229
0.000845509
0.011234
0.000894179
0.000849622
6.93006
0.000848787
0.000850743
0.000848551
0.000849597
1.25972
0.000849622
0.000849623
0.000845659
0.000851087
0.000852054
0.000850556
0.000986537
0.000851149
0.000873395
0.000851491
0.000849331
0.000851305
0.000849622
0.000851754
0.000848337
0.000991005
0.582671
7.04463
0.000852298
0.0008524
0.000944301
0.000849623
0.000993244
0.8701
0.000850754
0.000968197
0.315566
0.000847781
0.000950834
0.000853204
0.000849623
1.54293
0.180131
0.000863739
0.000966804
0.000943828
0.438253
0.000849622
0.000845384
0.000851321
0.000865216
0.00085133
0.000848208
0.00377904
0.000847686
0.000845513
0.000977544
0.183595
44.7055
0.000849621
0.448546
0.000848648
0.448187
0.000844976
0.000849623
1.04645
0.000846987
0.000990713
0.000856216
0.000850716
0.000981266
7.90171
0.00085075
0.0564266
0.000845525
0.781174
0.00593309
0.00088297
0.000849619
0.000851037
0.197613
0.153843
0.000857205
0.000849603
0.000849621
1.08046
0.000849623
0.000849623
0.000882118
0.000863981
0.000944328
0.000849622
0.000849551
0.000849616
0.775983
0.000846603
0.00084962
0.000849623
0.158852
0.000847639
0.000849623
0.000853825
0.000967966
0.000849326
0.000845986
0.589653
0.0191067
0.000849623
0.000849623
0.897743
0.0143406
0.000847195
0.376
0.00093996
0.000950355
0.0428685
0.000849598
0.000850535
0.00095297
0.000849623
0.000849621
0.000873318
0.000845428
1.8483
0.00084949
0.000605178
0.152875
0.00142723
0.502378
0.000851761
0.000865489
2.0686e-05
8.649
0.500121
0.00941507
0.700185
0.000849021
0.000849577
0.723113
0.000849623
0.000849389
0.662439
0.198285
0.000844559
0.000849649
0.000849621
0.000849622
0.00097448
0.656682
0.000849604
0.0655516
0.000849622
0.000849476
0.349665
0.826465
4.1765
0.00085137
0.995243
0.000897459
0.00210496
0.146206
0.000849624
0.000849623
0.000849623
0.00084962
0.000950825
0.00101797
0.000849623
0.000848935
0.189084
7.16616
0.000973237
0.00402211
0.657961
0.00570993
0.000945946
7.19051
0.000849597
4.91524
0.000943164
0.664986
0.000849624
0.000849623
0.0603388
0.000849623
0.000849623
0.000849591
0.000849623
0.000849623
0.000950102
0.654345
0.00056687
0.000849623
0.000764689
0.0214852
0.000948587
0.000849623
0.000849623
0.000849618
0.000849623
0.10812
0.000849622
0.91892
0.915572
0.000849623
0.000849623
5.15784
0.000863523
1.26172
0.813684
0.000849554
0.000983848
0.757036
0.000849623
0.000849623
0.000849624
0.000954272
0.000849623
0.000849623
0.000849623
0.000849623
0.000965839
0.000849624
0.000850535
0.0009026
0.000898621
0.00100437
0.000849622
0.694189
0.774127
1.68972
0.000757115
0.000849623
1.0117
0.000849623
0.000849624
0.000849624
0.896141
0.000849623
0.000975182
0.800957
0.000849623
0.000849623
0.624431
0.000849624
0.000849623
6.80152
0.812944
0.000851981
0.822687
0.000849623
0.000849623
0.000849623
0.000849623
0.000849623
1.07375
0.000849623
1.14081
0.000961677
0.000849623
0.000849623
0.539858
0.000849624
0.606031
0.000952557
0.000849623
0.000849623
0.000849624
0.000849623
0.000944517
0.686214
0.000849623
0.000970804
0.704838
0.000849623
0.000849623
0.000954898
0.000849624
0.000849623
0.00095821
0.000950779
0.000849623
0.000849623
0.000847175
0.631397
0.000966959
0.641641
0.780824
0.000854499
0.827246
0.000849623
0.000849623
0.000849623
0.000849623
0.000849623
0.000852022
0.000870244
0.000849624
0.000953911