/*--------------------------------*- C++ -*----------------------------------*\
| =========                 |                                                 |
| \\      /  F ield         | OpenFOAM: The Open Source CFD Toolbox           |
|  \\    /   O peration     | Version:  2312                                  |
|   \\  /    A nd           | Website:  www.openfoam.com                      |
|    \\/     M anipulation  |                                                 |
\*---------------------------------------------------------------------------*/
FoamFile
{
    version     2.0;
    format      ascii;
    arch        "LSB;label=32;scalar=64";
    class       volScalarField;
    location    "0.15";
    object      epsilon;
}
// * * * * * * * * * * * * * * * * * * * * * * * * * * * * * * * * * * * * * //

dimensions      [0 2 -3 0 0 0 0];

internalField   nonuniform List<scalar> 
32842
(
0.311164
0.311673
0.311193
0.311193
0.323172
0.311193
3595.99
3617.33
0.311193
0.311193
1127.28
1217.98
0.311193
0.311193
0.311201
0.310227
0.311193
0.311193
0.311086
0.322816
0.324579
0.323763
0.322472
0.311193
0.322037
0.311193
0.311193
0.318829
0.0532206
0.311193
0.11045
0.17654
576.195
0.311193
1345.82
4872.57
0.322197
0.311193
0.311192
0.31119
0.311193
0.324389
0.311193
0.311193
0.241314
0.311193
0.758575
0.311188
0.323869
0.851346
1397.22
0.311193
0.144367
0.711755
0.311193
0.300122
0.311193
0.835358
0.311193
0.311193
3751.14
0.149431
0.134229
0.32441
0.31119
0.296682
0.311193
0.124229
0.191716
0.311425
0.318311
0.615437
0.168816
0.311193
0.311193
0.31114
0.0261876
0.311193
0.169742
776.948
0.323028
0.311193
0.311193
0.153527
0.111476
0.311193
0.311193
0.339144
0.26088
0.311193
0.323198
0.32388
0.319004
0.311194
0.311193
0.311192
0.174207
0.311201
0.118895
0.311193
0.311193
0.32557
0.312291
0.574463
0.170278
0.185174
1.07947
0.312341
0.158465
0.311804
0.311193
0.311193
0.426024
0.311193
0.31255
0.324068
0.156601
0.511611
0.312115
0.311191
0.311193
0.311193
0.357726
0.311193
0.312058
0.171603
0.209228
0.311193
7.8543
0.311193
0.311193
0.312717
0.325745
0.168514
0.324615
0.310128
0.313168
1.07654
0.311189
0.310937
0.158922
0.311193
0.160575
0.32337
0.311065
0.311193
1734.76
0.311193
0.311193
0.311193
0.312491
0.446044
0.320789
6.86595
0.310239
0.311193
0.311193
0.311193
0.311061
0.311193
0.311137
0.311193
0.322145
0.311193
0.310601
0.311193
0.311193
0.311193
0.311191
15.6282
0.331055
0.324122
5.73845
0.311193
0.324762
16.8135
0.311193
0.312173
0.311193
0.311193
0.316658
0.311193
0.311193
0.311193
0.15572
0.311193
0.1672
0.311193
0.31119
0.311193
0.311193
0.508886
0.195087
0.311193
0.188183
0.311193
0.311193
0.311193
0.17446
0.311193
0.311193
0.311193
0.767969
0.46747
0.24546
0.333435
0.311189
0.324563
0.185146
0.311191
0.311153
0.310294
26.9707
16.3818
0.311193
0.311193
0.311192
0.311192
0.311185
0.310047
0.428458
0.311193
0.311193
0.31118
0.32541
0.218631
0.311193
0.181297
0.311142
351.933
0.311193
0.311193
0.311193
0.311193
284.725
0.323012
0.323397
0.31661
0.311193
0.149787
0.389556
0.311193
0.31119
0.478052
0.311129
0.311193
0.141368
0.311193
0.311193
0.311193
0.311193
0.311193
0.310063
0.174979
0.311193
0.311193
0.311193
13.1078
0.311193
0.311193
0.311193
0.311193
0.311193
0.311193
0.226381
0.311193
0.311193
0.311193
0.311193
0.311193
0.311193
0.175171
0.311193
0.221548
0.311193
1.41744
0.311192
0.324001
0.311193
0.311189
0.311193
0.270756
0.421942
0.311193
0.311123
0.326809
0.322057
0.311193
0.324512
0.311193
3669.19
0.311193
0.192312
15.5644
0.0443418
0.311971
0.193523
0.311193
0.311193
0.321927
312.886
0.311193
0.311193
0.311193
0.311193
0.311193
0.311193
0.311193
0.311193
0.147852
0.311193
0.311193
0.151085
0.311193
0.311193
0.311193
0.311193
371.867
0.311193
0.311193
0.311192
0.540417
0.311193
0.315439
0.311193
0.311193
0.311192
0.311193
0.31116
0.311193
0.31119
0.167869
0.311193
0.311193
0.311193
0.311193
0.0908391
0.191408
0.311193
0.311193
0.311193
0.311184
0.313305
0.311193
0.148261
0.311193
0.311193
0.181439
0.129272
0.161275
0.310803
0.32858
0.311029
0.17476
0.311193
0.311193
0.322284
0.311193
0.311193
0.311192
0.311193
0.311193
0.311193
0.702454
0.311193
0.311201
0.311193
0.311193
0.314587
0.321556
0.311193
3489.98
0.311193
0.32305
0.311193
0.158311
0.32331
0.311193
0.312718
0.322244
0.311142
0.145982
0.171517
0.311193
0.311192
0.311193
0.311193
0.311193
0.311193
0.311193
0.311193
0.311193
0.311193
0.311193
0.310958
0.311193
0.311147
0.31119
0.311192
0.310744
783.149
0.311193
0.311171
0.311318
127.276
0.31018
0.311193
0.325166
0.311193
0.322243
0.21006
0.311193
0.311193
0.311084
0.311193
0.311183
0.311185
0.311162
0.310685
136242
0.310664
0.168401
0.311193
0.324658
3681.98
0.311193
0.311193
0.311193
0.309807
0.311193
0.311167
0.311193
0.311193
0.167285
0.322902
0.0877746
0.311166
5532.77
0.381587
0.158037
0.32446
0.992977
0.322445
0.155372
0.311193
0.311182
0.316693
0.311193
0.321188
0.312797
0.311193
0.311193
0.310953
0.466436
0.320502
0.311193
0.311178
0.323548
0.310294
0.311186
0.3112
0.325236
0.311193
0.311193
0.311193
0.310114
0.311193
0.154059
0.311193
0.312305
0.311193
0.325433
0.323266
0.311193
0.311179
0.153384
0.164372
0.311193
0.311193
0.311193
0.311193
0.323078
0.311172
0.876201
0.153708
0.311193
0.311193
0.120976
0.312109
0.311193
0.322529
0.312481
0.317018
0.310474
0.160723
0.324667
0.199255
0.152497
0.313739
0.311193
0.323903
3.16226
0.310287
0.162829
0.32338
0.119345
0.320615
0.311193
0.455396
0.323288
0.311193
0.168581
0.311193
0.171034
0.311193
0.311193
0.323036
0.324178
0.370625
2848.52
0.459173
0.438482
0.307082
0.271216
0.242312
0.158366
0.311175
0.311193
0.311185
0.153992
0.373818
0.132888
0.440642
0.310476
0.311193
0.320744
0.220084
0.311193
19044.8
0.520394
0.310496
1772.52
0.311139
0.2895
0.311193
0.311193
0.310733
0.160604
219.302
0.311193
0.325537
0.311193
0.0485637
0.191966
0.311193
0.311166
0.311193
0.311193
0.674304
0.570365
0.311193
0.311193
0.310145
0.17333
0.848074
0.123558
0.311165
0.311193
0.311193
0.771705
0.152095
0.200308
0.276434
0.195003
0.311193
0.321668
0.194495
0.311182
0.664404
0.311193
0.323169
0.311193
0.312214
0.323416
0.322261
0.311193
0.311193
0.311193
0.31103
0.152398
0.324874
0.311193
0.311192
0.70527
0.311193
0.326715
0.246178
0.129317
0.311203
0.311193
0.27143
0.205634
1711.11
0.311192
4.92867
0.107336
0.71459
0.313216
0.548504
0.311193
0.311193
0.311193
0.311193
0.311193
0.712205
0.323508
0.311193
0.311193
0.311193
0.311193
0.311193
0.311193
0.310703
0.936071
0.124475
0.310937
0.311193
0.223649
0.652449
0.532459
0.311193
0.191886
0.311193
0.311193
0.311193
0.388441
0.169541
0.311193
0.322742
0.311193
0.0843958
0.311193
0.311193
0.311193
0.311193
0.228461
0.311193
0.311193
0.298977
0.789161
0.310539
0.311193
0.311193
0.192233
0.110389
0.311193
0.166357
0.322821
0.311193
0.311193
4.10206
0.381757
0.311193
0.120574
39.9109
0.310454
0.310737
0.311193
0.311193
0.323987
0.323282
0.311221
0.310229
6.02143
0.311193
0.314625
0.311193
0.311193
0.134737
0.426918
0.930287
0.449213
0.311193
0.311193
0.321444
0.322535
0.644943
353.526
0.566346
0.304818
0.311083
0.311845
0.29311
0.311193
0.632192
0.311192
0.311193
0.139267
925.542
0.311192
0.311193
0.311193
0.311193
0.311192
0.311193
0.31111
0.311193
0.311193
0.148309
0.311193
0.311193
0.311193
0.0953622
0.311193
0.311193
0.311167
0.192107
0.311193
0.311188
0.311155
0.311193
0.311193
0.311193
0.311041
0.311193
0.311193
0.311193
0.311186
0.314331
0.3112
0.323799
0.316251
0.325158
0.311193
0.323529
0.32347
0.199035
0.311191
0.311189
0.320869
0.591286
0.311193
0.216599
0.322389
0.311193
0.311193
0.313323
0.311193
0.311193
0.144778
0.311193
0.311193
0.311191
0.324496
0.171169
0.311189
0.322635
0.311193
0.321284
619.068
42.5001
0.321718
0.311193
0.129982
0.311193
0.311193
0.311193
0.311186
0.311192
0.311193
0.274899
0.311193
0.312966
0.143596
0.322632
0.311193
0.311673
0.311193
0.130414
0.325647
0.159234
0.310794
0.196581
0.213906
0.323464
0.311193
0.320714
0.311193
0.325439
0.311193
0.311193
0.32416
259.829
0.175224
0.311193
0.315806
0.311198
0.206591
0.310628
0.311193
0.311193
0.311193
0.311192
0.311193
0.311193
0.311193
0.311193
0.311191
0.311192
0.311184
0.175746
0.310152
0.327463
0.311174
0.311156
0.323271
0.513542
0.311159
0.311191
0.324337
0.311193
0.311692
0.311193
0.325432
0.132756
0.311193
0.311193
0.311119
0.311199
0.311193
0.311157
0.311193
0.311193
7934.81
0.311193
0.772557
0.311032
0.311193
0.310377
0.310817
0.321618
0.31119
0.311193
0.311193
0.311193
0.410536
0.311193
0.311167
0.161409
0.311198
0.171874
0.311193
0.322889
0.311193
0.311193
0.128647
16.19
0.311185
0.310929
0.256556
0.320605
0.311193
0.311193
0.311193
0.311193
0.311193
0.173953
0.911639
0.167871
0.311193
0.15708
0.311193
0.311193
0.311192
0.316163
0.316459
0.311193
0.311152
0.311193
0.311111
0.311807
0.311193
0.311193
0.311193
0.310333
0.375696
0.322875
0.311193
0.497917
0.22801
0.311193
0.309785
0.110472
0.311193
0.311193
0.311187
0.219945
0.311193
0.311193
0.178922
0.323804
0.311193
0.311193
0.311193
0.311193
0.316342
0.585538
0.311193
0.311193
0.202928
0.311193
0.311193
11.5543
0.311168
0.311193
0.311193
0.311193
0.176056
0.311132
0.311175
0.311193
0.311193
0.321874
0.311193
0.203157
0.323218
0.356071
0.311193
0.311193
0.311193
0.311193
0.311185
0.311193
0.252916
0.267615
0.320297
0.35921
0.311193
0.321679
0.311193
0.311193
0.311193
0.311193
0.311193
0.311193
0.311193
0.311193
0.311178
0.311193
1270.09
0.311187
0.125281
0.311186
0.149137
0.153907
0.311193
0.322172
0.151328
0.724257
0.51279
0.322757
0.31114
0.311193
0.311193
0.311193
0.764665
0.311193
0.277951
0.587207
0.491558
0.50659
0.31648
0.325237
0.311193
0.328546
4199.75
0.311193
451.504
0.314818
0.31065
0.311193
0.311193
0.417023
0.311192
0.163505
0.323618
98.4796
0.2279
0.145415
0.32228
0.311193
0.31119
0.31101
0.311193
0.310967
0.311193
0.311193
0.311166
0.374175
0.325053
0.310979
104.76
0.310958
0.311116
0.310698
0.31119
0.452599
0.172545
0.311192
0.311187
0.31118
0.16562
0.534693
0.311118
0.318954
0.156649
0.943504
0.310402
0.310164
1914.82
0.147924
0.311193
0.311193
0.311193
0.310151
0.355898
0.310393
0.218672
0.311193
0.311193
0.311193
0.311026
0.311018
0.476585
0.311193
0.311179
1077.36
0.505998
0.181507
0.311193
0.339659
537.826
0.311193
0.311193
0.311193
0.127626
0.315472
0.311193
0.3194
0.358199
0.311193
0.312359
0.318777
0.310907
0.311193
0.311193
0.311193
0.338133
0.310343
0.310384
0.309724
0.455489
0.317355
0.315525
0.326111
0.311149
7.07767
0.228372
0.311188
0.13405
0.285447
0.364433
0.318558
0.143586
0.33534
0.311193
1288.42
0.180411
0.307648
0.311182
0.311193
0.311193
0.311111
0.311192
0.310218
0.310952
2.7028
0.311193
0.311193
0.37055
0.311193
0.311202
119.167
0.478946
0.315702
0.313375
0.311182
0.142551
0.326603
0.178466
0.310117
0.311179
0.310794
0.877814
53.0867
0.322229
0.31521
114.851
0.31119
0.493416
0.31188
0.311193
0.248995
0.32713
0.310184
0.463724
0.310949
0.311193
0.352109
94.3499
2.08557
0.310968
0.311187
0.311193
0.311081
0.313037
0.312933
0.31732
0.311193
0.311193
0.365891
0.31118
0.311191
0.982452
0.311193
0.332436
0.305325
0.311193
0.311191
0.346403
0.53242
0.321544
0.920434
0.31119
0.355104
0.199682
0.328406
0.221975
0.312891
0.139234
0.311193
0.311193
0.311379
0.258913
0.32203
0.311173
0.472304
0.184531
0.341441
1.10895
0.311193
0.807561
0.0486358
0.312682
0.311193
0.311193
0.323722
0.311172
0.311127
0.226288
0.313314
0.340525
0.319802
0.323871
0.315602
0.31119
0.311192
0.319972
0.363208
0.311193
0.312033
0.311193
0.138573
0.310513
0.0619574
38.3021
0.312318
0.119687
21.7712
0.293771
0.290352
0.359902
333.226
0.31257
0.153174
0.331797
0.314299
0.320123
0.311193
0.34352
0.310714
0.311438
0.321892
0.312885
0.175203
0.321297
0.322524
0.145087
3674.77
0.310988
0.555588
0.323709
0.144249
17.0984
0.310559
0.306515
0.107963
17.4121
0.324
0.311193
0.145752
0.311193
0.320665
50175.8
0.322419
0.311181
0.180031
0.834589
0.311193
0.100161
0.311193
0.311193
0.311193
0.310988
0.331084
0.321769
0.311193
0.218366
0.228534
0.310211
0.311487
0.431762
0.311193
0.311193
0.310817
0.355916
0.337346
0.311192
0.251533
0.311193
47.1504
0.142638
0.313762
0.174696
0.21112
0.416113
0.330954
0.311495
0.112727
0.324295
57.2385
342.815
0.317125
0.324605
0.373885
0.311193
0.980343
0.3112
0.181509
0.311193
0.330205
0.311143
0.324109
0.315742
0.264575
0.583148
0.323997
0.311145
5.10598
0.191406
0.311193
0.311193
101.142
0.977421
0.311193
0.137228
0.31045
0.311394
0.321179
0.13647
0.310383
0.311181
0.157924
254.585
0.32304
0.310822
0.321814
0.311193
0.310028
0.732125
0.311193
0.168571
0.190624
0.310572
0.460137
0.311193
0.11545
1403.82
0.311193
0.327125
1.0055
0.311193
0.311193
0.310164
0.251519
0.311193
0.312794
0.31117
0.325701
0.312577
0.312661
0.311585
0.311193
0.311191
0.311176
0.311193
0.311193
0.310062
0.311192
0.311192
0.433647
0.311731
0.311097
596.022
0.315834
0.311135
0.31114
0.311764
0.311193
0.324303
0.441568
0.311193
0.310893
0.312771
0.313096
0.588087
377.259
0.324813
0.206455
3.95871
0.311149
0.311193
0.355778
2.52705
0.323434
0.135316
0.310973
0.311193
1228.77
0.323625
170.627
0.321693
0.326783
0.320208
0.311193
146.561
0.311192
0.311193
0.322301
60.3705
0.0261029
0.225187
59.1111
0.322487
0.321545
0.340945
0.311191
367.056
1.41014
0.322023
30.8343
0.311193
1.01595
0.311193
0.314504
0.311193
0.415683
0.311193
0.485653
0.311102
0.311183
0.324007
0.326564
0.17465
0.31273
0.311193
0.311191
0.319078
0.311185
0.311193
1134.52
0.311193
0.841478
0.311193
0.311179
0.3106
0.310782
0.311014
0.311193
0.319544
0.311193
0.416015
0.398518
0.311486
0.311163
0.31035
0.311192
0.31115
0.311193
0.727583
0.311193
0.311193
0.311193
0.323342
0.216777
0.311193
0.311192
0.311193
281.354
0.311193
0.310796
0.310656
0.31093
0.311192
0.148166
0.311075
0.31119
0.310947
663.664
0.310429
0.310117
0.311193
0.149954
0.312034
0.312575
0.314144
0.311191
0.312463
0.311193
0.329322
0.311193
0.310854
0.309855
0.448404
0.431544
0.310111
0.360428
0.40051
1.74736
0.31118
0.610806
0.314368
0.321582
0.310077
0.329876
0.424968
0.311193
0.311193
0.310037
0.311156
0.332416
0.435456
0.311193
0.311193
0.310313
0.31017
0.31197
0.655715
0.311125
421.111
0.350454
0.311193
0.313282
0.375539
0.313243
0.312153
0.311193
0.310177
0.183513
0.311127
160.584
0.311193
0.31254
0.311174
0.140278
0.322027
0.311193
0.311193
0.311193
0.311193
0.312364
0.311193
0.321414
0.311193
0.313949
0.311828
0.323254
0.311193
0.0268635
0.136954
0.311193
1.3192
0.370995
0.322323
0.310518
0.311193
0.157163
0.336272
0.800619
0.665546
0.311184
0.311193
0.327792
0.311193
0.321195
0.311193
0.311193
0.324193
0.38809
0.311187
0.311193
105.495
0.311193
0.311192
0.311193
0.311193
0.332331
0.146709
6.78815
0.311193
0.311193
0.311192
5.54129
0.31288
0.192367
216.926
0.323854
0.311193
0.31119
0.31118
0.311193
170.657
436.363
0.311193
0.311173
0.311193
0.311193
0.175863
0.311193
0.15879
0.311193
0.151568
0.32431
0.32444
0.311193
0.311193
0.311193
0.311143
0.311191
0.311177
0.311193
0.182443
0.311118
0.317995
0.183088
0.321363
0.311193
0.311042
0.311193
0.311193
0.312646
22.964
0.311193
0.311193
0.311193
0.144158
0.323745
208.63
0.981414
0.6043
0.166444
0.321798
6049.56
0.309957
0.187325
0.311135
0.311091
0.32439
0.536012
0.656443
0.333758
0.310821
0.166836
2763.79
0.311193
0.311193
0.312122
0.311193
0.311192
0.31119
0.321377
407.369
0.311193
0.791977
70.2739
0.311193
0.311193
0.311193
0.311191
0.311193
0.311193
0.311193
0.324454
0.306742
0.312225
0.317345
5.90825
0.312993
0.315697
0.157005
0.311197
0.323651
0.318595
0.313052
0.323767
0.325142
0.314589
0.127628
0.312059
0.315593
0.311193
0.311193
0.314514
0.310198
0.310524
0.311162
0.311193
0.817462
0.311193
0.31036
0.311195
0.311193
0.310264
0.310158
0.310291
0.311625
0.139253
0.311193
0.312235
0.311172
0.310414
0.311193
0.311193
0.559469
0.311645
0.310634
0.207161
0.31304
0.311193
0.311132
0.316541
0.363725
3.0735
0.313111
0.311193
0.322944
0.311121
0.310911
0.311158
0.496071
0.311179
0.311193
0.311193
0.39508
0.321498
0.31119
0.323937
0.311175
0.137281
0.321954
0.31069
0.31226
0.311193
0.311193
0.310565
0.311193
0.311193
0.311186
0.325049
0.311193
0.311069
0.314002
0.136683
0.332691
0.311193
0.312566
0.32676
0.31245
1.05931
0.189475
1.28929
0.314251
0.311987
0.324895
0.311193
0.313205
0.311193
0.980366
0.213164
0.324395
0.171388
0.118819
0.311192
0.311193
0.10877
0.311193
0.311193
0.855968
0.32209
0.31119
0.311193
0.312533
0.311193
0.311192
0.311182
0.311193
0.311193
0.138796
0.311193
0.311193
0.311193
0.311193
0.311193
0.247
0.104732
0.324956
0.311192
0.322827
0.32925
0.311193
0.311193
0.311193
0.631047
0.173013
0.360392
0.310942
144.635
0.311193
0.311192
0.366858
0.203677
0.310761
0.31151
0.311193
0.311179
0.311189
0.311193
0.310967
0.310861
0.313677
0.740404
0.122428
0.311147
0.311158
7.81714
0.311171
0.0281359
0.311193
0.322281
0.311193
0.311193
0.311193
0.309667
0.630641
0.311654
0.311381
0.311193
0.311193
0.307888
0.311193
0.105247
0.321473
0.325765
0.192919
0.311193
0.845058
0.311193
0.311193
0.311193
0.311193
0.311193
0.311189
0.144735
0.311193
0.343799
0.311193
0.312022
0.310245
543.147
0.311193
0.311193
0.145532
0.147515
0.311193
0.311036
0.311193
0.311193
0.40745
0.311193
0.148358
0.311163
0.311192
0.35513
0.296265
0.310075
0.312327
0.311192
0.312384
0.311193
0.311193
0.985507
0.310102
0.311193
0.319987
0.311193
0.311193
0.311193
0.311193
0.312199
0.337897
0.311193
0.312512
0.306875
10.0479
2.78202
0.311193
0.311193
0.132396
0.311193
0.310697
3.31441
0.311193
10.0092
141.12
95.7169
0.156678
0.311192
0.310692
0.311056
0.311193
0.31065
0.175368
0.311164
0.182383
0.311193
0.392661
0.377868
0.311043
300.08
0.311189
0.31067
0.311672
1.10125
0.126614
0.311193
0.444355
0.310177
0.311193
0.311193
0.310329
0.310225
0.311193
213.363
0.170675
0.31206
0.311193
0.312326
0.311193
0.367522
0.311193
0.323969
0.311193
0.311193
0.310728
0.321831
0.311192
0.351807
1.75543
0.310038
0.310136
0.311193
0.183692
0.310053
0.311193
0.311181
3.17399
0.311193
0.311193
0.311193
0.313928
130.685
151.412
89.0892
0.31804
14.9298
0.31119
0.310351
0.311894
0.335391
0.311027
0.311144
0.342313
0.317359
0.784124
0.311187
0.311193
0.163421
0.178207
29.4501
0.311193
0.311192
1.18311
0.143336
0.347988
0.288751
0.985309
0.311193
0.310635
0.339921
0.311193
0.311193
0.322762
1.17708
0.305708
771.827
0.158359
51.5196
0.311187
0.488398
0.220659
0.31119
0.311192
0.59722
0.312704
0.311179
0.311193
0.31107
0.313259
0.324208
0.312201
28.3461
0.311193
0.311193
0.31119
0.310834
0.319975
0.571199
0.311076
0.311193
0.311193
0.0984442
175.03
0.311192
0.310097
0.310344
0.311184
0.313357
0.311193
0.311193
293.879
0.313309
0.519999
0.311193
0.31865
0.311193
0.320952
0.330523
0.177592
0.311193
0.313671
0.317996
0.311193
0.311193
0.311061
0.311193
0.312386
0.31859
0.322746
56.7776
0.198249
0.3127
0.322801
0.430182
0.323095
0.326559
0.311193
0.311193
0.322966
0.311193
0.32113
0.311193
0.311676
0.310042
0.322017
0.311193
0.314232
0.32573
0.311193
0.311193
0.31029
0.311193
0.310189
0.311193
0.222521
0.311193
0.311192
0.221686
0.311193
1.89671
14.0854
0.168564
0.338708
0.171228
4.16342
0.155048
0.311193
0.311193
0.311193
0.191559
0.311193
1463.54
0.311185
0.311384
0.311193
0.311193
0.311193
0.311181
0.311192
0.310795
0.311193
0.147184
0.311193
0.311193
0.319992
0.312772
0.31119
1103.89
0.20134
0.311193
0.311193
0.311193
0.120308
81.1436
30.4298
0.374974
36.4991
0.311192
0.311193
0.311193
0.310578
0.311193
0.311193
0.321655
0.311193
0.311193
0.311193
0.312189
0.311187
0.31117
0.3105
0.311193
0.280924
0.438181
0.332422
0.468922
0.704956
0.311192
0.311188
12.1952
0.310011
0.311193
0.115881
0.323497
0.311191
0.310933
0.325361
0.505757
0.656209
0.311191
0.311193
0.322779
58.089
0.311193
0.311193
0.311193
0.544132
0.321559
0.312481
0.32814
0.311193
0.311193
0.311193
0.311185
0.311076
0.311008
0.311191
0.311193
0.311193
0.311191
0.311191
0.311184
0.31119
0.314408
0.311193
0.395661
0.314143
2.69908
0.314905
0.169582
0.157261
0.333694
0.323595
0.311193
0.310654
0.310366
0.335556
0.318897
0.195933
0.312715
52.2254
4.28739
0.31429
0.317949
0.322413
0.309875
0.31271
105.541
0.675815
0.338283
0.311193
0.311193
0.310463
0.310175
0.182972
0.313656
0.345879
0.314404
0.312427
0.30997
0.31118
0.311193
0.315536
0.31415
0.31051
0.311186
0.119512
0.308872
0.311193
0.311098
0.310028
0.310973
0.311193
0.311193
0.166472
0.311193
0.311193
0.311193
0.352409
0.312164
0.313526
0.314392
0.311193
0.320055
0.310848
0.310028
0.311184
0.313649
0.511868
0.351547
0.310483
0.320965
0.311154
0.311094
0.369934
0.0999569
122.243
0.443241
0.128934
0.311193
0.274444
0.311193
0.311193
0.311193
0.311909
0.311193
814.795
0.311192
0.121274
0.316938
0.310417
0.311191
0.319536
0.312435
0.146166
0.311193
0.35017
0.311193
0.311456
0.318337
0.311193
0.311184
10.8557
0.311192
0.311193
0.311188
0.528354
0.840459
0.311193
0.470918
0.311193
0.311192
0.311191
0.311193
0.311193
0.311186
0.311171
0.311193
0.311193
0.311192
0.376218
0.311193
0.308318
0.310867
0.32642
0.324221
0.222911
20.9723
0.311193
0.311193
0.311192
0.618571
0.321359
0.311193
0.311173
0.27048
0.343632
0.312526
0.0821318
0.327692
0.311179
0.194449
0.188472
0.312416
0.311191
0.310442
0.31198
0.144286
0.310206
0.330113
0.311193
0.311193
12.3948
177.622
0.312271
0.346708
2.50728
0.310031
0.311404
0.323733
0.311191
9.4358
0.321594
0.321112
0.324516
0.311026
0.31112
2151.09
0.340045
0.31117
0.311191
0.311182
0.311193
0.311193
0.311193
0.178755
125.093
0.115046
0.311193
0.311184
0.311193
0.310622
0.3119
0.311007
0.311187
0.31216
0.601424
0.311117
0.214197
0.180206
0.311193
0.310893
0.31117
713.582
0.311193
0.312878
0.321422
0.150099
0.310581
0.311193
0.31107
0.311193
0.312352
16.3155
0.31294
0.310243
0.0272536
0.341666
0.311193
3315.28
0.310998
0.313005
0.310704
0.311186
0.0942456
0.311193
0.311193
0.310332
0.311913
0.312334
0.311756
0.325738
0.312117
0.316455
0.312327
0.312168
0.312689
0.311193
0.312254
0.311162
0.326225
0.199482
3083.46
0.313879
0.313026
0.321422
0.311193
0.325817
0.134756
0.313178
0.323943
0.2735
0.310744
0.321727
0.314596
0.311193
1545.13
1.04506
0.320177
0.323797
0.321397
0.257133
0.311193
0.310216
0.312801
0.325326
0.312803
0.31085
0.41672
0.310726
0.310223
0.323424
0.316318
2333.78
0.311192
0.249499
0.310953
0.249313
0.310101
0.311193
0.11218
0.31073
0.326138
0.317113
0.312965
0.325237
114.943
0.312332
0.982103
0.310311
0.151124
0.708489
0.316142
0.311192
0.313203
0.365908
0.796464
0.318956
0.311188
0.311192
2.72353
0.311193
0.311193
0.340648
0.324839
0.321394
0.311193
0.311175
0.311191
0.151861
0.310462
0.311192
0.311193
0.320581
0.310992
0.311193
0.315673
0.323136
0.31112
0.310312
0.705589
0.142187
0.311193
0.311193
0.127899
0.549426
0.310851
0.287378
0.321053
0.321752
0.976836
0.311187
0.312485
0.322307
0.311193
0.311192
0.34483
0.314062
1117.21
0.31116
0.30574
0.305914
0.359846
0.228452
0.313247
0.325961
0.150837
2.53088
0.229607
0.462362
0.166556
0.311045
0.311181
0.162613
0.311193
0.311135
0.176175
0.468901
0.310041
0.31153
0.311192
0.311193
0.324561
0.177917
0.311188
0.790917
0.311193
0.311156
1.73913
0.14295
8.55357
0.312286
0.120698
0.332967
0.393045
0.443005
0.311193
0.311193
0.311193
0.311192
0.322157
0.325965
0.311193
0.311024
0.396223
42.223
0.324424
0.79045
0.177294
0.919159
0.321615
77.806
0.311186
28.847
0.321296
0.176764
0.311193
0.311193
0.594054
0.311193
0.311193
0.311199
0.311193
0.311193
0.322071
0.178465
0.262332
0.311193
0.323094
0.563182
0.321932
0.311193
0.311193
0.311192
0.311193
0.0563948
0.311193
0.128
0.128476
0.311193
0.311193
2.50825
0.330183
0.0946846
0.144746
0.311176
0.325477
0.155869
0.311193
0.311193
0.311193
0.343008
0.311193
0.311193
0.311193
0.311193
0.323669
0.311193
0.312211
0.355603
0.316548
0.327542
0.311193
0.168143
0.152532
24.2788
0.303319
0.311193
1452.43
0.311193
0.311193
0.311193
0.132752
0.311193
0.324641
0.148661
0.311193
0.311193
0.187405
0.311193
0.311193
613.779
0.146052
0.312817
0.144094
0.311193
0.311193
0.311193
0.311193
0.311193
2638.22
0.311193
0.103455
0.323261
0.311193
0.311193
1694.55
0.311193
0.19076
0.322394
0.311193
0.311193
0.311193
0.311193
0.321458
0.170684
0.311193
0.324179
0.16553
0.311193
0.311193
0.322555
0.311193
0.311193
0.322934
0.322104
0.311193
0.311193
0.315736
0.184393
0.323758
0.183533
0.150924
0.315169
0.14343
0.311193
0.311193
0.311193
0.311193
0.311193
0.3127
0.329892
0.311193
0.322445
0.402055
0.32368
0.311216
0.311193
0.679902
0.772992
0.321466
0.651488
0.311193
1.00383
0.311193
0.311193
0.311193
0.311193
0.198458
0.311193
0.151323
0.311193
0.311193
0.311193
0.311193
0.323765
0.321436
0.179988
0.115653
0.311193
0.311193
15.1934
10.8398
0.311193
0.311193
0.386387
0.107716
0.312394
0.144586
0.311708
0.311193
0.311193
0.311193
0.311193
0.321874
0.137331
0.128909
0.311193
0.311193
0.323152
0.31099
0.182545
0.311193
0.311193
0.311174
0.324329
0.322306
0.32404
0.311193
0.321269
0.154823
0.311193
0.311138
0.311205
0.156715
0.311191
0.311193
0.311187
0.310629
0.311193
0.159023
0.326524
0.311193
0.311193
0.12669
0.31097
0.311193
0.216769
0.214383
0.324905
0.311193
0.311193
0.324611
0.311193
0.311193
0.311029
0.311193
0.311193
0.311193
0.311193
0.311193
0.326635
0.311193
0.311193
0.314421
0.394422
0.316227
1.38239
265.104
0.310168
0.215694
0.284934
0.323399
0.322902
46.5435
0.311193
0.167846
0.321896
0.235243
0.323994
0.324456
15.6415
0.63914
0.332139
0.462209
0.310255
0.311193
0.430178
0.311116
0.321831
0.319084
137.666
0.314986
0.295237
0.328516
0.326496
0.916161
144.009
0.311193
0.311193
0.311193
4309.89
0.318516
0.311177
0.323371
0.311193
0.311193
0.311193
0.160612
0.312085
0.323937
0.311193
0.311193
0.312549
0.310384
0.228789
0.321
0.310697
0.448931
0.215801
0.171291
0.310958
0.175765
3.64442
0.099779
0.319046
0.310381
0.311193
0.320769
0.352234
0.324405
0.311193
0.324561
0.959008
0.311188
0.310947
0.135347
0.311193
0.013864
0.321805
0.311193
0.152421
0.311453
0.311193
0.321667
0.324403
0.169063
0.446384
0.627439
0.311185
0.164627
0.324102
0.311193
0.31038
0.323991
0.217519
0.311193
0.311193
0.311193
0.208346
0.321172
0.158611
0.137006
656.351
0.400992
0.128639
0.178065
0.311192
0.310971
0.311193
0.156553
0.311193
0.323463
0.433005
0.317765
1.17802
0.271087
25.342
0.311193
0.342915
0.301639
0.311193
0.311188
0.324198
0.310484
0.311192
0.311193
0.598732
0.3104
0.311987
0.310675
0.312115
161.85
0.429083
0.311193
0.311163
0.169552
0.311193
0.311193
0.487831
0.172211
0.321837
0.576407
0.311193
0.322482
0.396587
0.311193
0.311193
0.170104
0.322697
0.393926
0.311193
31.6698
0.171152
0.16309
0.311608
0.306962
0.312703
0.311193
469.326
0.322352
0.311193
0.311193
0.312645
0.310241
0.31322
0.311193
0.339056
0.31114
0.311115
0.311947
0.315837
0.310782
0.310481
0.310095
0.310156
0.331962
0.312733
0.841147
0.188802
0.311193
0.265546
0.233705
0.41426
0.488699
0.449763
4.17822
1.1604
0.089042
0.312686
0.316264
0.311193
0.367709
0.310357
0.311193
0.260355
0.311156
0.369547
946.276
0.314939
0.311193
0.310279
0.310879
1.07539
0.333301
0.310429
0.300899
0.313602
0.311193
0.325527
0.311193
0.837562
123.188
0.310145
0.311193
0.310002
0.313311
0.311188
4.79693
0.350969
0.332009
0.311193
1.84119
0.310501
0.54746
2885.93
85.6456
6.7188
0.510204
0.31001
0.311193
0.496791
0.262074
0.311193
0.312824
0.700512
0.310712
0.310861
0.311193
0.385059
0.166746
0.311193
0.311193
0.311193
1.44376
0.488186
0.311193
0.311181
0.310953
0.322478
0.311193
0.312418
0.311727
1.09719
2.17075
0.858547
0.311483
0.264592
0.936395
0.311193
0.311193
0.31202
0.326345
0.310503
0.310607
0.342971
0.48671
0.600808
0.311193
285.094
0.323468
0.311193
172.004
0.33508
0.946278
0.427056
0.16398
0.311193
0.311193
0.312413
0.311177
0.312947
0.312214
1.64391
0.310823
0.561596
0.555625
0.311193
0.314861
0.310797
0.311193
0.330576
0.310178
0.734926
0.311193
0.311193
0.314122
0.314918
121.63
0.373059
0.311193
0.643367
0.310574
0.311134
1.03927
0.205678
0.311161
0.317543
0.468484
0.311193
0.366743
0.36084
0.297424
0.37675
0.36066
0.44501
0.348782
0.313438
0.312295
0.544496
0.311193
0.311193
54.0813
0.737847
0.832967
18.9663
19.7311
0.835455
0.311193
0.311079
67.5194
0.173138
0.323052
0.325829
0.329237
0.330483
9.33952
3.64776
388.34
0.311832
5.10705
0.493845
0.320879
0.817766
0.078387
0.307089
0.323026
0.149841
0.312266
10.1104
0.325416
1.54442
1.36607
0.310155
0.311139
0.311193
0.312894
1.02205
0.315887
1.12486
0.305852
0.322199
0.143934
0.310507
0.310442
0.158629
0.301667
0.311193
0.55161
0.310681
0.310236
0.321049
0.322399
0.31119
0.311193
0.311193
0.311193
0.12101
0.322514
0.3112
0.310421
0.311193
4.39438
0.311193
0.31244
0.310617
0.311193
0.315924
0.318743
0.311012
0.310039
183.815
0.323229
0.31048
0.31297
0.310429
0.311191
0.156496
29.2463
0.312583
0.311193
0.313682
0.311756
0.355938
0.310111
0.311193
0.326865
10.5649
0.89567
0.312188
0.312186
0.312329
0.312077
0.321852
0.317414
0.317386
0.31272
0.312147
0.311979
0.310769
0.617442
0.326792
0.315779
0.400207
87.0518
0.315392
0.312872
0.549259
1.00563
1.15348
146.924
2.04107
0.313974
0.313402
0.3123
0.311193
151.428
0.799759
0.306726
0.337135
0.330327
0.311624
0.312322
0.27411
0.318051
3.4516
0.325972
0.312305
0.322903
0.311191
0.312869
0.320781
0.312661
0.201243
0.194735
0.316206
0.51882
0.314466
0.31291
0.310183
0.318118
0.310176
0.311193
0.338087
0.326438
0.317025
0.314844
0.303655
69.8782
592.923
0.372037
2.16601
0.698902
0.312187
3.76198
0.310877
0.831096
0.311905
0.311497
0.346335
0.18647
97.785
0.427045
0.561933
0.389864
0.831059
0.311193
6.93849
0.311188
5.93269
14.5235
20.005
0.270255
78.2461
0.311193
29.6741
0.340603
0.31241
0.312754
0.326055
3.55516
5.95114
0.379493
0.432695
0.310368
0.312041
0.312758
0.312745
0.454959
0.310847
0.311175
0.341363
1.02297
0.311193
0.310091
0.311193
0.311144
0.311751
0.311012
0.311132
0.311188
0.311193
0.343918
0.311193
0.315319
6.80447
0.310922
0.313688
0.31157
0.311193
0.310989
0.324429
0.311193
0.311089
176.455
9.77853
0.335016
1299.26
0.391837
0.310668
0.311152
0.279196
0.317468
0.341181
0.156616
2978.42
0.323936
0.747834
0.311596
0.41937
0.313692
0.316463
0.413555
43.4988
0.203983
443.08
0.503176
7.32214
0.12429
0.314274
0.315218
0.317692
1.06436
0.314878
0.312374
0.311192
0.308879
0.324921
0.354063
0.314679
0.313081
0.312107
0.31327
0.311654
0.938638
0.310009
0.184179
0.909003
0.295863
0.310675
0.310843
0.727991