/*--------------------------------*- C++ -*----------------------------------*\
| =========                 |                                                 |
| \\      /  F ield         | OpenFOAM: The Open Source CFD Toolbox           |
|  \\    /   O peration     | Version:  2312                                  |
|   \\  /    A nd           | Website:  www.openfoam.com                      |
|    \\/     M anipulation  |                                                 |
\*---------------------------------------------------------------------------*/
FoamFile
{
    version     2.0;
    format      ascii;
    arch        "LSB;label=32;scalar=64";
    class       volScalarField;
    location    "0.15";
    object      k;
}
// * * * * * * * * * * * * * * * * * * * * * * * * * * * * * * * * * * * * * //

dimensions      [0 2 -2 0 0 0 0];

internalField   nonuniform List<scalar> 
32842
(
0.0460465
0.0460914
0.0460495
0.0460495
0.0499014
0.0460495
413.981
462.103
0.0460495
0.0460495
96.439
106.745
0.0460495
0.0460495
0.0460431
0.0459484
0.0460495
0.0460495
0.0460385
0.0497857
0.0503574
0.0501032
0.0496572
0.0460495
0.0495345
0.0460495
0.0460495
0.0484718
0.302861
0.0460495
0.254152
0.965699
222.232
0.0460495
358.963
626.284
0.0495932
0.0460495
0.0460494
0.0460492
0.0460495
0.0503077
0.0460495
0.0460495
0.953814
0.0460495
0.335992
0.046049
0.0501409
0.807776
303.456
0.0460495
0.973671
0.541138
0.0460495
0.0424893
0.0460495
0.603435
0.0460495
0.0460495
432.331
0.971177
0.971281
0.0503307
0.0460492
0.0401349
0.0460495
0.981026
0.967633
0.0460682
0.0483266
0.242289
0.96833
0.0460495
0.0460495
0.0460435
0.180734
0.0460495
0.969701
84.4932
0.049856
0.0460495
0.0460495
0.972176
0.980153
0.0460495
0.0460495
0.0554509
0.567409
0.0460495
0.0499097
0.0501297
0.148279
0.046049
0.0460495
0.0460495
0.968732
0.0460463
0.974393
0.0460495
0.0460495
0.050698
0.0461549
0.647396
0.968583
0.967509
1.66048
0.0461609
0.967628
0.0461059
0.0460495
0.0460495
0.13243
0.0460495
0.0461821
0.0502074
0.972214
0.876687
0.0461374
0.0460494
0.0460495
0.0460495
0.246152
0.0460495
0.046103
0.969971
0.962131
0.0460495
16.1836
0.0460495
0.0460495
0.0461996
0.0512299
0.966629
0.0505936
0.0459375
0.0462478
0.831144
0.0460491
0.046023
0.969424
0.0460495
0.971092
0.0478128
0.0460362
0.0460495
747.153
0.0460495
0.0460495
0.0460495
0.0461773
0.928514
0.0491186
1.41169
0.045947
0.0460495
0.0460495
0.0460495
0.0460359
0.0460495
0.0460437
0.0460495
0.049566
0.0460495
0.045983
0.0460495
0.0460495
0.0460495
0.0460493
12.3936
0.0480849
0.0502316
15.0182
0.0460495
0.0504333
15.4959
0.0460495
0.0461441
0.0460495
0.0460495
0.0477856
0.0460495
0.0460495
0.0460495
0.972431
0.0460495
0.969304
0.0460495
0.0460492
0.0460495
0.0460495
0.796808
0.966681
0.0460495
0.967506
0.0460495
0.0460495
0.0460495
0.968179
0.0460495
0.0460495
0.0460495
0.957115
0.370275
0.0135807
0.0593083
0.0460491
0.0503542
0.964142
0.0460493
0.0460454
0.04597
47.2544
27.6196
0.0460495
0.0460495
0.0460494
0.0460494
0.0460487
0.0459287
0.740698
0.0460495
0.0460495
0.0460482
0.0506953
0.960587
0.0460495
0.969501
0.0460443
58.5276
0.0460495
0.0460495
0.0460495
0.0460495
120.046
0.0498308
0.0499551
0.0466095
0.0460495
0.971131
0.195226
0.0460495
0.0460492
0.369525
0.0460429
0.0460495
0.970182
0.0460495
0.0460495
0.0460495
0.0460495
0.0460495
0.0459294
0.970234
0.0460495
0.0460495
0.0460495
23.2336
0.0460495
0.0460495
0.0460495
0.0460495
0.0460495
0.0460495
0.96508
0.0460495
0.0460495
0.0460495
0.0460495
0.0460495
0.0460495
0.973131
0.0460495
0.961362
0.0460495
0.641319
0.0460494
0.0501715
0.0460495
0.0460491
0.0460495
0.0252389
0.103804
0.0460495
0.0460423
0.0511897
0.0478206
0.0460495
0.0503467
0.0460495
822.414
0.0460495
0.966835
37.0607
0.244588
0.0461001
0.96621
0.0460495
0.0460495
0.0494965
54.8095
0.0460495
0.0460495
0.0460495
0.0460495
0.0460495
0.0460495
0.0460495
0.0460495
0.969881
0.0460495
0.0460495
0.972101
0.0460495
0.0460495
0.0460495
0.0460495
173.055
0.0460495
0.0460495
0.0460494
0.163177
0.0460495
0.0473966
0.0460495
0.0460495
0.0460494
0.0460495
0.0460461
0.0460495
0.0460492
0.974276
0.0460495
0.0460495
0.0460495
0.0460495
0.977875
0.968567
0.0460495
0.0460495
0.0460495
0.0460486
0.0462628
0.0460495
0.969415
0.0460495
0.0460495
0.964754
0.970868
0.969253
0.0460098
0.0606071
0.0460325
0.96861
0.0460495
0.0460495
0.049598
0.0460495
0.0460495
0.0460494
0.0460495
0.0460495
0.0460495
0.637749
0.0460495
0.0460486
0.0460495
0.0460495
0.0463855
0.0493676
0.0460495
738.397
0.0460495
0.0500483
0.0460495
0.969532
0.0499416
0.0460495
0.0461998
0.0496078
0.0460443
0.969626
0.970418
0.0460495
0.0460495
0.0460495
0.0460495
0.0460495
0.0460495
0.0460495
0.0460495
0.0460495
0.0460495
0.0460495
0.0460251
0.0460495
0.0460447
0.0460492
0.0460494
0.0459984
33.4998
0.0460495
0.0460473
0.0460565
68.2537
0.0459431
0.0460495
0.0506029
0.0460495
0.0495877
0.961454
0.0460495
0.0460495
0.0460382
0.0460495
0.0460485
0.0460487
0.0460463
0.0459967
4796.2
0.0459945
0.967439
0.0460495
0.0503995
322.151
0.0460495
0.0460495
0.0460495
0.0458138
0.0460495
0.0460467
0.0460495
0.0460495
0.971183
0.0498244
0.970749
0.0460468
1526.05
0.0819505
0.971605
0.0503224
0.577919
0.0496759
0.972319
0.0460495
0.0460484
0.0478032
0.0460495
0.0492584
0.0462087
0.0460495
0.0460495
0.0460253
0.0654976
0.0490332
0.0460495
0.046048
0.0500318
0.0459553
0.0460488
0.0460489
0.0505867
0.0460495
0.0460495
0.0460495
0.0459353
0.0460495
0.971608
0.0460495
0.0461557
0.0460495
0.0506517
0.0499444
0.0460495
0.0460481
0.972037
0.970345
0.0460495
0.0460495
0.0460495
0.0460495
0.049871
0.0460474
0.450759
0.971913
0.0460495
0.0460495
0.97324
0.0461323
0.0460495
0.0496942
0.0461736
0.0479077
0.0459883
0.968246
0.0503974
0.965745
0.970421
0.0463068
0.0460495
0.0501457
12.8469
0.0459519
0.970347
0.0499613
0.974296
0.0490611
0.0460495
0.477882
0.0499277
0.0460495
0.969501
0.0460495
0.967667
0.0460495
0.0460495
0.0498523
0.0502861
0.57373
379.006
0.760138
0.0836996
0.28636
0.150155
0.138153
0.971892
0.0460477
0.0460495
0.0460487
0.973128
0.717753
0.975787
0.146414
0.0459748
0.0460495
0.0491171
0.530626
0.0460495
977.973
0.124728
0.0459747
134.46
0.0457018
0.0259169
0.0460495
0.0460495
0.0460017
0.970628
77.853
0.0460495
0.0506914
0.0460495
0.26646
0.966388
0.0460495
0.0460467
0.0460495
0.0460495
0.282442
0.143207
0.0460495
0.0460495
0.0459392
0.968095
0.430591
0.97515
0.0460466
0.0460495
0.0460495
0.378944
0.974001
0.969258
0.64153
0.966694
0.0460495
0.0471366
0.966535
0.0460484
0.645064
0.0460495
0.0499015
0.0460495
0.0461461
0.0499792
0.0496137
0.0460495
0.0460495
0.0460495
0.0460326
0.973724
0.0504522
0.0460495
0.0460494
0.321922
0.0460495
0.0516136
0.592554
0.975283
0.0460472
0.0460495
0.307413
0.488585
395.188
0.0460494
7.43514
0.974707
0.255694
0.0462521
0.532835
0.0460495
0.0460495
0.0460495
0.0460495
0.0460495
0.738331
0.050031
0.0460495
0.0460495
0.0460495
0.0460495
0.0460495
0.0460495
0.0459985
1.07151
0.973603
0.046023
0.0460495
0.0147416
0.79218
0.569655
0.0460495
0.567166
0.0460495
0.0460495
0.0460495
0.42228
0.971392
0.0460495
0.0497463
0.0460495
0.37199
0.0460495
0.0460495
0.0460495
0.0460495
0.7876
0.0460495
0.0460495
0.233016
0.797546
0.0459792
0.0460495
0.0460495
0.970477
0.978732
0.0460495
0.967857
0.0497789
0.0460495
0.0460495
0.891085
0.0882875
0.0460495
0.973601
8.50164
0.0459724
0.0445597
0.0460495
0.0460495
0.050164
0.0499511
0.046131
0.0459464
1.43476
0.0460495
0.0379121
0.0460495
0.0460495
0.424226
0.0890936
0.219114
0.091838
0.0460495
0.0460495
0.0493392
0.0496879
0.256849
28.8713
0.157559
0.0488861
0.0460328
0.0461093
0.0301078
0.0460495
0.601793
0.0460494
0.0460495
0.977909
53.1489
0.046049
0.0460495
0.0460495
0.0460495
0.0460495
0.0460495
0.0460409
0.0460495
0.0460495
0.973371
0.0460495
0.0460495
0.0460495
0.978019
0.0460495
0.0460495
0.0460468
0.963014
0.0460495
0.046049
0.0460451
0.0460495
0.0460495
0.0460495
0.0460289
0.0460495
0.0460495
0.0460495
0.0460488
0.0456056
0.0460473
0.0501216
0.0476607
0.0505764
0.0460495
0.0500141
0.0501281
0.962527
0.0460493
0.0460491
0.0491617
0.679667
0.0460495
0.962496
0.0496456
0.0460495
0.0460495
0.0462648
0.0460495
0.0460495
0.972151
0.0460495
0.0460495
0.0460493
0.0503383
0.965121
0.0460491
0.0497221
0.0460495
0.0493003
88.6032
32.6854
0.0494193
0.0460495
0.972604
0.0460495
0.0460495
0.0460495
0.0460488
0.0460495
0.0460495
0.688917
0.0460495
0.0462277
0.971163
0.0497348
0.0460495
0.0460928
0.0460495
0.973267
0.0507102
0.971713
0.046008
0.969791
0.961524
0.0499747
0.0460495
0.0491073
0.0460495
0.050645
0.0460495
0.0460495
0.0502357
82.4681
0.968041
0.0460495
0.0427997
0.0460482
0.966287
0.0459907
0.0460495
0.0460495
0.0460495
0.0460495
0.0460495
0.0460495
0.0460495
0.0460495
0.0460493
0.0460494
0.0460486
0.973059
0.0459386
0.650134
0.0460475
0.0460457
0.0499435
0.243275
0.046046
0.0460493
0.0502739
0.0460495
0.0460951
0.0460496
0.0507533
0.979722
0.0460495
0.0460495
0.0460418
0.0460486
0.0460495
0.0460397
0.0460495
0.0460495
926.532
0.0460495
2.66139
0.0460328
0.0460495
0.0459615
0.0460062
0.0494079
0.0460492
0.0460495
0.0460495
0.0460495
0.793789
0.0460495
0.0460467
0.971264
0.0460477
0.968316
0.0460495
0.0478798
0.0460495
0.0460495
0.975779
17.2112
0.0460486
0.0460221
0.756591
0.0490681
0.0460495
0.0460495
0.0460495
0.0460495
0.0460495
0.966842
1.58995
0.966741
0.0460495
0.968666
0.0460495
0.0460495
0.0460494
0.0473711
0.047714
0.0460495
0.0460453
0.0460495
0.046041
0.0461073
0.0460495
0.0460495
0.0460495
0.0459607
0.0922811
0.0498165
0.0460495
0.81177
0.574126
0.0460495
0.0446352
0.302987
0.0460495
0.0460495
0.0460489
0.961231
0.0460495
0.0460495
0.96639
0.0501218
0.0460495
0.0460495
0.0460495
0.0460495
0.0476926
0.906256
0.0460495
0.0460495
0.968818
0.0460495
0.0460495
8.49042
0.0460469
0.0460495
0.0460495
0.0460495
0.968363
0.0460432
0.0460476
0.0460495
0.0460495
0.0495095
0.0460495
0.968784
0.0499228
0.0676236
0.0460495
0.0460495
0.0460495
0.0460495
0.0460487
0.0460495
0.524891
0.619003
0.0489706
0.075817
0.0460495
0.0494094
0.0460495
0.0460495
0.0460495
0.0460495
0.0460495
0.0460495
0.0460495
0.0460495
0.046048
0.0460495
53.5616
0.0460489
0.976911
0.0460488
0.972803
0.973793
0.0460495
0.0495713
0.969663
0.670999
0.174827
0.0562829
0.046044
0.0460495
0.0460495
0.0460495
0.673292
0.0460495
0.631733
0.318187
0.127997
0.170985
0.0477355
0.0439168
0.0460495
0.047824
514.908
0.0460495
128.096
0.04642
0.0459931
0.0460495
0.0460495
0.0662461
0.0460494
0.968585
0.0500568
95.5845
0.959774
0.970149
0.0496867
0.0460495
0.0460492
0.0460305
0.0460495
0.0460261
0.0460495
0.0460495
0.0460467
0.435164
0.0505744
0.0460273
55.3266
0.0460251
0.0460416
0.0459932
0.0460492
0.4697
0.470054
0.0460494
0.0460489
0.0460482
0.967851
0.691047
0.0460417
0.0468198
0.968723
0.450602
0.0459671
0.0459419
108.247
0.974558
0.0460495
0.0460495
0.0460495
0.0459399
0.0411034
0.0459631
0.962627
0.0460495
0.0460495
0.0460495
0.0460322
0.0461386
0.219071
0.0460495
0.0460481
336.331
0.762706
0.966878
0.0460495
0.0996075
67.2744
0.0460495
0.0460495
0.0460495
0.975245
0.0456793
0.0460495
0.048672
0.0492961
0.0460495
0.0464631
0.0472281
0.0460197
0.0460495
0.0460495
0.0460495
0.0497555
0.0459606
0.0459624
0.0429037
0.0297414
0.0480109
0.0474229
0.047596
0.046045
6.74239
0.962505
0.046049
0.974987
0.969718
0.0521213
0.0468155
0.405859
0.0301368
0.0460495
140.217
0.969887
0.0441557
0.0460484
0.0460495
0.0460495
0.046041
0.0460494
0.045947
0.0460245
3.12647
0.0460495
0.0460495
0.0898365
0.0460495
0.0460484
18.3127
0.671505
0.0474293
0.0464189
0.0460484
0.42203
0.0473769
0.965342
0.0459364
0.046048
0.0460035
0.812584
34.2555
0.0496162
0.0464592
98.6173
0.0460492
0.230506
0.0461129
0.0460495
0.566582
0.0511976
0.0459441
0.132569
0.0460242
0.0460495
0.648171
87.4616
5.61659
0.0460262
0.0460489
0.0460495
0.0460379
0.0462327
0.0462224
0.0467882
0.0460495
0.0460495
0.0859042
0.0460482
0.0460494
0.490286
0.0460495
0.0343323
0.0990598
0.0460495
0.0460493
0.0334097
0.0989973
0.0472372
0.569324
0.0460492
0.0623821
0.46853
0.0517049
0.492616
0.0462169
0.970705
0.0460495
0.0460495
0.0460624
0.616239
0.0496555
0.0460475
0.263797
0.971713
0.0569843
0.983612
0.0460495
0.626956
0.246731
0.0461934
0.0460495
0.0460495
0.0473049
0.0460473
0.0460428
0.665453
0.046263
0.0486601
0.0469908
0.0515983
0.0474495
0.0460493
0.0460494
0.0415236
0.995381
0.0460495
0.0461286
0.0460495
0.444997
0.0459783
0.282727
42.2365
0.0461573
0.49639
16.8732
0.142889
0.188101
0.602566
59.8306
0.0461848
0.972171
0.0173703
0.0463701
0.0489101
0.0460495
0.239447
0.0459997
0.0460678
0.0502229
0.0462164
0.967382
0.0471002
0.0496935
0.972184
330.544
0.0460283
2.60003
0.0501164
0.972883
13.4928
0.0459835
0.0436695
0.503112
26.5439
0.0501665
0.0460495
0.973282
0.0460495
0.0490772
963.425
0.0496584
0.0460483
0.968524
0.707523
0.0460495
0.0910755
0.0460495
0.0460495
0.0460495
0.0460283
0.665607
0.0494366
0.0460495
0.501494
0.970893
0.0459469
0.0460742
14.7355
0.0460495
0.0460495
0.046005
0.0506375
0.0481004
0.0460495
0.119721
0.0460495
28.5603
0.570022
0.0463091
0.96754
0.74044
0.128517
0.055071
0.0460733
0.504505
0.0474044
7.79588
101.502
0.0420892
0.0503771
0.0524133
0.0460495
1.07673
0.0460476
0.966885
0.0460495
0.0497386
0.0460444
0.0502126
0.0474889
0.502657
0.767646
0.0501529
0.0460445
7.43162
0.966025
0.0460495
0.0460495
48.0391
0.812373
0.0460495
0.974721
0.0459721
0.0459085
0.0471307
0.974823
0.0459619
0.0460483
0.0789723
55.5582
0.0498515
0.0460064
0.0494779
0.0460495
0.0459266
0.823872
0.0460495
0.966211
0.970713
0.0459811
0.130039
0.0460495
0.345522
105.591
0.0460495
0.0512513
0.420069
0.0460495
0.0460495
0.0459415
0.687518
0.0460495
0.0462066
0.046047
0.050722
0.0461846
0.0461944
0.0460833
0.0460495
0.0460493
0.0460478
0.0460495
0.0460495
0.0459294
0.0460494
0.0460494
0.193192
0.0460988
0.0460395
82.5518
0.0463761
0.0460435
0.046044
0.0461012
0.0460495
0.0503747
0.0961998
0.0460495
0.0460132
0.046205
0.0462411
0.707006
26.082
0.0505027
0.961827
4.70913
0.046045
0.0460495
0.125839
5.70487
0.049981
0.971901
0.0460213
0.0460495
80.8237
0.0500546
111.341
0.0494236
0.0511109
0.048929
0.0460495
107.8
0.0460494
0.0460495
0.0496385
51.848
0.15932
0.961525
50.6624
0.0496738
0.0493713
0.0642198
0.0460494
121.63
6.08575
0.0495249
23.0078
0.0460495
0.40607
0.0460495
0.0463883
0.0460495
0.0789838
0.0460495
0.0776567
0.0460402
0.0460485
0.050192
0.0475561
0.485339
0.0462015
0.0460495
0.0460493
0.0480277
0.0460487
0.0460495
58.9931
0.0460495
1.53618
0.0460495
0.046048
0.0459901
0.0460068
0.046031
0.0460495
0.0436497
0.0460495
0.0745606
0.946194
0.0460731
0.0460464
0.0459615
0.0460495
0.046045
0.0460495
0.587218
0.0460495
0.0460495
0.0460495
0.0499604
0.960238
0.0460495
0.0460495
0.0460495
124.72
0.0460495
0.0460083
0.0459936
0.0460222
0.0460494
0.969755
0.0460373
0.0460492
0.046024
120.23
0.0459712
0.0459365
0.0460495
0.969914
0.0461287
0.0461842
0.0463494
0.0460493
0.0461716
0.0460495
0.0479487
0.0460495
0.0460143
0.045803
0.135169
0.129727
0.0459357
0.0477927
1.34385
14.4392
0.0460482
0.539038
0.0463716
0.0493847
0.0459325
0.0033828
0.752517
0.0460495
0.0460495
0.0459267
0.0460457
0.0482267
0.0581738
0.0460495
0.0460495
0.0459122
0.0459426
0.0461228
0.627501
0.0460425
119.186
0.0367558
0.0460495
0.0462631
0.884985
0.046257
0.0460373
0.0460495
0.0459419
0.967431
0.0460426
84.7395
0.0460495
0.0461813
0.0460476
0.971627
0.0495423
0.0460495
0.0460495
0.0460495
0.0460495
0.0461616
0.0460495
0.0470537
0.0460495
0.046328
0.0461043
0.0503544
0.0460495
0.196287
0.979076
0.0460495
0.875096
0.408404
0.0496793
0.0459754
0.0460495
0.971334
0.0486598
0.857619
0.661796
0.0460485
0.0460495
0.0523471
0.0460495
0.0470903
0.0460495
0.0460495
0.0502394
0.104777
0.0460489
0.0460495
63.0278
0.0460495
0.0460494
0.0460495
0.0460495
1.04938
0.968101
26.0176
0.0460495
0.0460495
0.0460495
5.75759
0.0462159
0.269781
39.5277
0.0501261
0.0460495
0.0460492
0.0460482
0.0460495
49.9384
103.285
0.0460495
0.0460475
0.0460495
0.0460495
0.966616
0.0460495
0.972964
0.0460495
0.972549
0.0502812
0.0474317
0.0460495
0.0460495
0.0460495
0.0460445
0.0460494
0.0460478
0.0460495
0.965722
0.0460419
0.0474391
0.500925
0.0465894
0.0460495
0.0460339
0.0460495
0.0460495
0.0461914
21.6221
0.0460495
0.0460495
0.0460495
0.972531
0.0493389
102.223
0.219867
1.91795
0.970249
0.0502202
972.232
0.0458995
0.967714
0.0460433
0.0460382
0.0502946
0.952376
0.69153
0.0603173
0.0460053
0.969494
151.329
0.0460495
0.0460495
0.0461363
0.0460495
0.0460494
0.0460492
0.049309
31.3313
0.0460495
3.11038
7.54691
0.0460495
0.0460495
0.0460495
0.0460493
0.0460495
0.0460495
0.0460495
0.0503174
0.0190013
0.046148
0.0466891
15.4832
0.0462287
0.0482128
0.972975
0.0460485
0.0500753
0.0468222
0.0462366
0.0500896
0.050556
0.0464387
0.974044
0.0461321
0.0388858
0.0460495
0.0460495
0.0463877
0.0459455
0.0459797
0.0460463
0.0460495
2.45373
0.0460495
0.0459603
0.0460482
0.0460495
0.0459523
0.0459398
0.0459552
0.0460885
0.972579
0.0460495
0.0461472
0.0460473
0.0459593
0.0460496
0.0460495
8.99503
0.0460897
0.0459876
0.963663
0.0462343
0.0460495
0.0460428
0.0466025
0.0799993
1.57422
0.0462413
0.0460495
0.0472733
0.046042
0.0460202
0.0460459
0.305666
0.0460481
0.0460495
0.0460495
0.248703
0.0493435
0.0460492
0.0501643
0.0460476
0.974024
0.04951
0.0459972
0.0460919
0.0460495
0.0460495
0.045984
0.0460495
0.0460495
0.0460488
0.0505359
0.0460495
0.0460367
0.0463341
0.971593
0.0483377
0.0460495
0.0461853
0.0511133
0.046175
0.662933
0.966727
0.367045
0.0463637
0.0461249
0.0504572
0.0460495
0.0462526
0.0460495
0.309731
0.961781
0.0503163
0.969051
0.973895
0.0460494
0.0460495
0.97506
0.0460495
0.0460495
0.807256
0.0495518
0.0460492
0.0460495
0.0461811
0.0460495
0.0460494
0.0460484
0.0460495
0.0460495
0.978807
0.0460495
0.0460495
0.0460495
0.0460495
0.0460495
0.780478
0.468197
0.0505028
0.0460494
0.0497802
0.0549792
0.0460495
0.0460495
0.0460495
0.239407
0.969817
0.119044
0.0460235
83.8722
0.0460495
0.0460494
0.941661
0.963884
0.0460046
0.0460767
0.0460495
0.046048
0.0460491
0.0460495
0.0460261
0.0460151
0.0463022
0.437376
0.973423
0.0460448
0.0460458
2.15435
0.0460472
0.948018
0.0460495
0.0496319
0.0460495
0.0460495
0.0460495
0.0438915
0.875715
0.046084
0.0460587
0.0460495
0.0460495
0.0445609
0.0460495
0.975141
0.0493578
0.00299057
0.964617
0.0460495
1.02181
0.0460495
0.0460495
0.0460495
0.0460495
0.0460495
0.0460491
0.969342
0.0460495
0.0566613
0.0460495
0.0461268
0.04595
355.47
0.0460495
0.0460495
0.340851
0.969881
0.0460495
0.0460332
0.0460495
0.0460495
0.0785691
0.0460495
0.972055
0.0460403
0.0460495
0.058467
1.32092
0.045931
0.0461305
0.0460494
0.0461354
0.0460495
0.0460495
0.525482
0.0459342
0.0460495
0.0491804
0.0460495
0.0460495
0.0460495
0.0460495
0.0461461
0.056383
0.0460495
0.0461792
0.0416149
23.1193
2.4475
0.0460495
0.0460495
12.806
0.0460495
0.0459998
0.670017
0.0460495
2.32709
13.5198
12.0542
0.96868
0.0460494
0.0459974
0.0460353
0.0460495
0.045993
0.967017
0.0460465
0.965245
0.0460495
0.0819334
0.0954264
0.046034
36.7512
0.0460491
0.045995
0.0462837
0.28895
0.971825
0.0460495
0.827839
0.0459411
0.0460495
0.0460495
0.0459565
0.0459484
0.0460495
81.765
0.968914
0.0461317
0.0460495
0.0461599
0.0460495
0.0527796
0.0460495
0.0473501
0.0460495
0.0460495
0.0459952
0.0494662
0.0460495
0.050291
2.8793
0.0459283
0.045937
0.0460495
2.59311
0.0459295
0.0460495
0.0460483
12.4142
0.0460495
0.0460495
0.0460495
0.0463261
72.101
47.4284
32.4754
0.0451566
35.9127
0.0460492
0.0459583
0.0461157
0.0485558
0.0460323
0.0460445
0.0504214
0.0480143
0.921443
0.0460489
0.0460495
0.971851
0.972679
8.77009
0.0460495
0.0460494
0.37347
8.81606
0.0713065
0.0137126
0.725529
0.0460495
0.0459876
0.0451427
0.0460495
0.0460495
0.0497678
1.61976
0.043851
189.597
0.969975
39.3958
0.0460489
0.607719
0.071266
0.0460492
0.0460495
4.25935
0.0461969
0.046048
0.0460495
0.0460368
0.0462592
0.047707
0.0461482
12.3943
0.0460495
0.0460495
0.0460492
0.0460106
0.0488558
0.195801
0.0460374
0.0460495
0.0460495
0.140097
82.5132
0.0460495
0.0459338
0.0458727
0.0460486
0.0462682
0.0460495
0.0460495
90.1443
0.0462613
0.508559
0.0460495
0.485248
0.0460495
0.0470759
0.0480679
3.05418
0.0460495
0.0463008
0.0467537
0.0460495
0.0460495
0.0460358
0.0460495
0.0461647
0.0468192
0.047362
52.9735
0.394387
0.0648255
0.0497816
0.0577108
0.0498871
0.0510276
0.0460495
0.0460495
0.0498381
0.0460495
0.0492373
0.0460495
0.0460943
0.0459288
0.0495221
0.0460495
0.0463598
0.0507445
0.0460495
0.0460495
0.0459552
0.0460495
0.0459441
0.0460495
0.961344
0.0460495
0.0460494
0.0361402
0.0460495
2.96152
13.1504
0.969302
0.0542152
0.96874
3.62279
0.969344
0.0460495
0.0460495
0.0460495
0.964375
0.0460495
146.05
0.0460486
0.0460628
0.0460495
0.0460495
0.0460495
0.0460482
0.0460494
0.0459943
0.0460495
0.971478
0.0460495
0.0460495
0.0535923
0.046206
0.0460492
178.793
0.965113
0.0460495
0.0460495
0.0460495
0.977321
59.064
33.6424
0.0498163
42.5112
0.0460494
0.0460495
0.0460495
0.0459818
0.0460495
0.0460495
0.0494036
0.0460495
0.0460495
0.0460495
0.0461453
0.0460489
0.0460472
0.0459774
0.0460495
0.113217
0.0950776
0.0969992
0.136266
0.654963
0.0460495
0.046049
21.158
0.0458612
0.0460495
0.399451
0.0500151
0.0460493
0.0460226
0.0510119
0.970324
0.655347
0.0460494
0.0460495
0.0497652
72.3587
0.0460495
0.0460495
0.0460495
0.158059
0.0471298
0.0461728
0.0515529
0.0460495
0.0460495
0.0460495
0.0460487
0.0460374
0.0460304
0.0460494
0.0460495
0.0460495
0.0460493
0.0460493
0.0460486
0.0460492
0.0463779
0.0460495
0.136726
0.0463486
7.14795
0.0463207
0.970647
0.972166
0.0538518
0.0473525
0.0460495
0.0459892
0.0459585
0.641912
0.947363
0.963898
0.046198
40.9013
1.1871
0.0464002
0.0467461
0.0496556
0.0443603
0.0461984
66.3552
0.173895
0.0472683
0.0460495
0.0460495
0.0459699
0.0459404
0.967381
0.0462504
0.0722212
0.0463773
0.0461687
0.0459212
0.0460482
0.0460495
0.0465012
0.0467774
0.0459748
0.0460488
0.978431
0.0440767
0.0460495
0.0460396
0.0458977
0.0460267
0.0460495
0.0460495
0.966391
0.0460495
0.0460495
0.0460495
0.0479238
0.0461433
0.0462854
0.0463753
0.0460495
0.0451445
0.0460136
0.0459203
0.0460486
0.0462988
0.46841
0.77409
0.0459756
0.0448202
0.0460455
0.0460393
0.0627122
0.977046
17.5992
0.141328
0.970258
0.0460495
0.0294984
0.0460495
0.0460495
0.0460495
0.0461166
0.0460495
31.7039
0.0460494
0.520832
0.0466354
0.0459687
0.0460493
0.0497774
0.0461715
0.974352
0.0460495
0.0673788
0.0460495
0.0460713
0.0467818
0.0460495
0.0460486
5.91342
0.0460495
0.0460495
0.0460491
0.0762166
3.7076
0.0460495
0.232395
0.0460495
0.0460494
0.0460493
0.0460495
0.0460495
0.0460488
0.0460473
0.0460495
0.0460495
0.0460495
0.0893461
0.0460495
0.0444971
0.046011
0.0524363
0.0502538
0.570734
30.0655
0.0460495
0.0460495
0.0460494
0.447438
0.0472354
0.0460495
0.0460475
0.023925
0.0494028
0.0461785
0.273777
0.0478395
0.046048
0.963868
0.967766
0.0461674
0.0460493
0.0459713
0.0461244
0.974306
0.0459212
0.0482339
0.0460495
0.0460495
3.59262
100.829
0.0461535
0.0489982
1.29796
0.0459272
0.0460654
0.0500912
0.0460493
4.08001
0.0494702
0.0492417
0.0503541
0.0460322
0.046042
99.4723
0.0590989
0.0460472
0.0460494
0.0460484
0.0460495
0.0460495
0.0460495
0.967886
16.6991
0.512319
0.0460495
0.0460486
0.0460495
0.0459902
0.0461169
0.0460302
0.0460489
0.0461415
0.212248
0.0460416
0.951646
0.969074
0.0460495
0.0460134
0.0460471
152.267
0.0460495
0.0462172
0.0485157
0.977026
0.045986
0.0460495
0.0460367
0.0460495
0.0461625
17.9061
0.0462244
0.0459498
0.0495785
0.0495271
0.0460495
435.404
0.0460275
0.0462302
0.0460606
0.0460488
0.975808
0.0460495
0.0460495
0.0459572
0.0461168
0.0461608
0.0461012
0.0507678
0.0461383
0.0470627
0.0461602
0.0461402
0.0461987
0.0460495
0.0461516
0.04604
0.0509229
0.965518
422.77
0.0463227
0.0462326
0.049339
0.0460495
0.0509944
0.969742
0.0462447
0.0501549
0.832277
0.0460028
0.0495369
0.0463983
0.0460495
139
1.22937
0.0471045
0.0501075
0.049325
0.952742
0.0460495
0.0459445
0.0462087
0.0475049
0.0462054
0.0460139
0.112415
0.046002
0.0459479
0.0504565
0.689515
919.313
0.0460495
0.948742
0.0460246
0.947896
0.0459343
0.0460495
0.970482
0.0459971
0.0509096
0.0466802
0.0462203
0.0505974
85.4893
0.0461612
0.671813
0.0459553
0.973309
0.183868
0.0473152
0.0460494
0.0462197
0.767642
0.992661
0.0468638
0.046049
0.0460495
4.86298
0.0460495
0.0460495
0.0491515
0.047495
0.0493392
0.0460495
0.0460477
0.0460493
0.97218
0.0459733
0.0460494
0.0460495
0.63903
0.0460223
0.0460495
0.0465097
0.0501009
0.0460419
0.0459577
1.82892
0.147754
0.0460495
0.0460495
0.960932
0.251474
0.0460084
0.932981
0.0491972
0.0495313
0.586967
0.0460489
0.0461745
0.0496331
0.0460495
0.0460495
0.0491839
0.0461518
120.682
0.0460461
0.0386199
0.62081
0.0641911
0.959484
0.0462557
0.0475865
0.00500426
13.2762
0.959712
0.18709
0.96713
0.0460341
0.0460484
0.971131
0.0460495
0.0460435
0.967479
0.863683
0.0459277
0.0460778
0.0460495
0.0460495
0.0503653
0.968017
0.046049
0.645284
0.0460495
0.0460457
2.25293
0.973424
16.9483
0.046155
0.981551
0.0491483
0.0814485
0.722051
0.0460495
0.0460495
0.0460495
0.0460494
0.0495657
0.0516988
0.0460495
0.046032
0.776377
49.3374
0.0503226
0.16005
0.967261
0.205906
0.0493968
67.1075
0.0460489
33.7692
0.0493012
0.970957
0.0460495
0.0460495
0.540308
0.0460495
0.0460495
0.0460491
0.0460495
0.0460495
0.0495402
0.967781
0.0345317
0.0460495
0.0447282
0.312985
0.04949
0.0460495
0.0460495
0.0460494
0.0460495
0.22495
0.0460495
0.971328
0.971553
0.0460495
0.0460495
10.2146
0.0479923
0.978856
0.971914
0.0460478
0.0506782
0.972827
0.0460495
0.0460495
0.0460495
0.0514202
0.0460495
0.0460495
0.0460495
0.0460495
0.0500726
0.0460495
0.046149
0.0508863
0.0477645
0.0513673
0.0460495
0.967553
0.973159
18.1626
0.0429008
0.0460495
109.195
0.0460495
0.0460495
0.0460495
0.976801
0.0460495
0.0503897
0.977239
0.0460495
0.0460495
0.968791
0.0460495
0.0460495
183.666
0.975845
0.0462107
0.975072
0.0460495
0.0460495
0.0460495
0.0460495
0.0460495
151.632
0.0460495
0.972929
0.0499331
0.0460495
0.0460495
86.1657
0.0460495
0.962915
0.0496292
0.0460495
0.0460495
0.0460495
0.0460495
0.0493474
0.969223
0.0460495
0.0502407
0.967342
0.0460495
0.0460495
0.0497024
0.0460495
0.0460495
0.0498178
0.0495604
0.0460495
0.0460495
0.0463605
0.96632
0.0501085
0.971852
0.972192
0.0464586
0.975517
0.0460495
0.0460495
0.0460495
0.0460495
0.0460495
0.0461981
0.048003
0.0460495
0.0496683
1.04673
0.0500536
0.046046
0.0460495
0.43551
0.467761
0.0493418
0.113575
0.0460495
0.47241
0.0460495
0.0460495
0.0460495
0.0460495
0.965188
0.0460495
0.973133
0.0460495
0.0460495
0.0460495
0.0460495
0.0501153
0.0493358
0.966304
0.97525
0.0460495
0.0460495
22.943
19.9666
0.0460495
0.0460495
0.0763203
0.976539
0.0461674
0.97011
0.0460959
0.0460495
0.0460495
0.0460495
0.0460495
0.0494824
0.972621
0.976538
0.0460495
0.0460495
0.0498884
0.0460276
0.969418
0.0460495
0.0460495
0.0460475
0.0502826
0.049624
0.0501812
0.0460495
0.0492794
0.969568
0.0460495
0.0460438
0.046037
0.970408
0.0460494
0.0460495
0.0460489
0.0459908
0.0460495
0.97292
0.0510119
0.0460495
0.0460495
0.980634
0.0460263
0.0460495
0.96236
0.961919
0.0504901
0.0460495
0.0460495
0.0503935
0.0460495
0.0460495
0.046027
0.0460495
0.0460495
0.0460495
0.0460495
0.0460495
0.0435597
0.0460495
0.0460495
0.0463783
0.336545
0.0465669
0.394683
98.7975
0.0459419
0.961947
0.0935994
0.0472637
0.0498043
42.4836
0.0460495
0.966716
0.0475009
0.595819
0.0311322
0.0503239
21.1803
0.361402
0.0499875
1.76046
0.0459513
0.0460495
0.134411
0.0460415
0.0471502
0.046862
15.115
0.0464365
0.982281
0.0478461
0.0468517
0.838089
53.4253
0.0460495
0.0460495
0.0460495
345.185
0.046806
0.0460479
0.049983
0.0460495
0.0460495
0.0460495
0.972905
0.0461343
0.050163
0.0460495
0.0460495
0.0461818
0.0459652
0.0152474
0.049186
0.0459933
0.594344
0.378031
0.966663
0.0460251
0.967294
0.985424
0.976478
0.0485564
0.0459649
0.0460495
0.0491197
0.0710641
0.0503099
0.0460495
0.0503788
0.2458
0.046049
0.046024
0.971702
0.0460495
0.091201
0.049448
0.0460495
0.972422
0.046167
0.0460495
0.0494089
0.0503146
0.970585
0.151199
0.674231
0.0460487
0.968813
0.0502185
0.0460495
0.0459618
0.0501772
0.964248
0.0460495
0.0460495
0.0460495
0.961388
0.0492501
0.968851
0.408062
100.533
0.116367
0.973637
0.972689
0.0460494
0.0460265
0.0460495
1.97378
0.0460495
0.0499994
0.119423
0.04814
0.311642
0.0472216
6.90108
0.0460495
0.0454878
0.0347778
0.0460495
0.0460491
0.0502361
0.0459791
0.0460494
0.0460495
0.422498
0.0459629
0.0461232
0.0459957
0.0461393
107.509
0.121862
0.0460495
0.0460465
0.9699
0.0460495
0.0460495
0.171189
0.967533
0.0494713
0.919266
0.0460495
0.0496805
0.0349198
0.0460495
0.0460495
0.970644
0.0497632
0.067815
0.0460495
32.1598
0.973762
0.967699
0.0460836
0.0410224
0.0461994
0.0460495
33.1766
0.0496269
0.0460495
0.0460495
0.0461933
0.0459498
0.0462516
0.0460495
0.0621898
0.0460441
0.0460415
0.0461196
0.0465278
0.0460068
0.0459718
0.0459332
0.0459408
0.0481182
0.0462023
0.806296
0.964419
0.0460495
0.827216
0.602025
0.0773046
0.468543
0.148652
24.746
0.38521
0.411277
0.0460637
0.0465412
0.0460495
0.0847976
0.0459599
0.0460495
0.593288
0.0460457
0.0623869
100.456
0.0464335
0.0460495
0.0459539
0.0460169
0.327968
0.0528533
0.0459673
0.88863
0.0462945
0.0460495
0.0475393
0.0460495
0.202475
54.0946
0.04594
0.0460495
0.0459244
0.0462615
0.046049
11.1285
0.066155
0.0446548
0.0460495
1.29898
0.0459773
0.8343
173.679
65.3978
2.44824
0.114189
0.045877
0.0460495
0.644263
0.0910481
0.0460495
0.0462108
0.74747
0.0459995
0.046015
0.0460495
0.0682404
0.970386
0.0460495
0.0460495
0.0460495
0.979987
0.187261
0.0460495
0.0460483
0.0460246
0.0497306
0.0460495
0.0461676
0.0460988
0.886036
0.450544
0.922897
0.0460736
0.199014
0.652442
0.0460495
0.0460495
0.0463733
0.0509389
0.0459801
0.0459838
0.270555
0.0625969
0.728843
0.0460496
124.528
0.05
0.0460495
63.0182
0.734792
0.984771
0.107722
0.968452
0.0460495
0.0460495
0.0461616
0.0460479
0.0462353
0.0461481
0.740749
0.0460057
0.696666
0.534387
0.0460495
0.0464249
0.0460076
0.0460495
0.059363
0.0459418
0.0481653
0.0460495
0.0460495
0.0463472
0.0464309
90.2045
0.741574
0.0460495
0.218503
0.0459809
0.0460433
0.4886
0.524952
0.0460462
0.0466974
0.333739
0.0460495
0.492248
0.0527193
0.646949
0.0601133
0.0511656
0.134521
0.0639371
0.0462742
0.0461553
0.222775
0.0460495
0.0460495
46.7486
0.981299
7.33008
25.8744
39.1047
0.470712
0.0460495
0.0460323