/*--------------------------------*- C++ -*----------------------------------*\
| =========                 |                                                 |
| \\      /  F ield         | OpenFOAM: The Open Source CFD Toolbox           |
|  \\    /   O peration     | Version:  2312                                  |
|   \\  /    A nd           | Website:  www.openfoam.com                      |
|    \\/     M anipulation  |                                                 |
\*---------------------------------------------------------------------------*/
FoamFile
{
    version     2.0;
    format      ascii;
    arch        "LSB;label=32;scalar=64";
    class       volScalarField;
    location    "0.15";
    object      nut;
}
// * * * * * * * * * * * * * * * * * * * * * * * * * * * * * * * * * * * * * //

dimensions      [0 2 -1 0 0 0 0];

internalField   nonuniform List<scalar> 
32842
(
0.000613263
0.000613456
0.000613286
0.000613286
0.000693479
0.000613286
4.28927
5.31291
0.000613286
0.000613286
0.742531
0.841972
0.000613286
0.000613286
0.0006131
0.000612497
0.000613286
0.000613286
0.000613203
0.00069103
0.000703151
0.000697825
0.0006882
0.000613286
0.000685728
0.000613286
0.000613286
0.000663227
0.155114
0.000613286
0.052634
0.475427
7.71411
0.000613286
8.61696
7.2448
0.000687013
0.000613286
0.000613285
0.000613283
0.000613286
0.000702175
0.000613286
0.000613286
0.339303
0.000613286
0.0133938
0.000613282
0.000698648
0.0689792
5.93155
0.000613286
0.591017
0.0370279
0.000613286
0.000541382
0.000613286
0.0392312
0.000613286
0.000613286
4.48447
0.568067
0.632536
0.000702772
0.000613284
0.000488648
0.000613286
0.697237
0.439547
0.000613326
0.000660335
0.0085847
0.499893
0.000613286
0.000613286
0.00061323
0.11226
0.000613286
0.498572
0.826978
0.000692527
0.000613286
0.000613286
0.554047
0.775622
0.000613286
0.000613286
0.000815971
0.111069
0.000613286
0.000693657
0.000698312
0.00620307
0.00061327
0.000613286
0.000613285
0.484824
0.000613185
0.7187
0.000613286
0.000613286
0.000710526
0.00061393
0.0656629
0.495858
0.45496
0.22988
0.00061399
0.531774
0.000613584
0.000613286
0.000613286
0.00370492
0.000613286
0.000614145
0.000700071
0.543214
0.135205
0.00061381
0.000613285
0.000613286
0.000613286
0.015244
0.000613286
0.000613007
0.49344
0.39819
0.000613286
3.00114
0.000613286
0.000613286
0.000614281
0.000725122
0.49903
0.000709685
0.000612402
0.000614677
0.0577518
0.000613283
0.000613083
0.532215
0.000613286
0.528548
0.000636255
0.000613184
0.000613286
28.9615
0.000613286
0.000613286
0.000613286
0.000614133
0.173957
0.000676883
0.0261229
0.000612437
0.000613286
0.000613286
0.000613286
0.000613182
0.000613286
0.000613241
0.000613286
0.000686372
0.000613286
0.00061268
0.000613286
0.000613286
0.000613286
0.000613285
0.884554
0.000628579
0.000700627
3.53738
0.000613286
0.000704873
1.28534
0.000613286
0.000613875
0.000613286
0.000613286
0.000649003
0.000613286
0.000613286
0.000613286
0.546531
0.000613286
0.505738
0.000613286
0.000613284
0.000613286
0.000613286
0.112287
0.431102
0.000613286
0.447681
0.000613286
0.000613286
0.000613286
0.483568
0.000613286
0.000613286
0.000613286
0.107356
0.026396
6.7625e-05
0.00094943
0.000613283
0.000703097
0.451867
0.000613284
0.000613254
0.000612938
7.45135
4.19099
0.000613286
0.000613286
0.000613285
0.000613285
0.00061328
0.000612328
0.115244
0.000613286
0.000613286
0.000613276
0.000710799
0.379843
0.000613286
0.466605
0.000613246
0.876
0.000613286
0.000613286
0.000613286
0.000613286
4.55526
0.000691864
0.000694489
0.000617541
0.000613286
0.566663
0.00880542
0.000613286
0.000613283
0.0257072
0.000613235
0.000613286
0.599235
0.000613286
0.000613286
0.000613286
0.000613286
0.000613286
0.000612314
0.484184
0.000613286
0.000613286
0.000613286
3.70633
0.000613286
0.000613286
0.000613286
0.000613286
0.000613286
0.000613286
0.370278
0.000613286
0.000613286
0.000613286
0.000613286
0.000613286
0.000613286
0.486544
0.000613286
0.375446
0.000613286
0.0261147
0.000613285
0.000699214
0.000613286
0.000613282
0.000613286
0.000211742
0.00229837
0.000613286
0.000613231
0.000721629
0.000639058
0.000613286
0.000702999
0.000613286
16.5903
0.000613286
0.437462
7.94213
0.121423
0.000613099
0.434163
0.000613286
0.000613286
0.00068491
0.864108
0.000613286
0.000613286
0.000613286
0.000613286
0.000613286
0.000613286
0.000613286
0.000613286
0.5726
0.000613286
0.000613286
0.562918
0.000613286
0.000613286
0.000613286
0.000613286
7.24804
0.000613286
0.000613286
0.000613285
0.00443435
0.000613286
0.000640948
0.000613286
0.000613286
0.000613285
0.000613286
0.00061326
0.000613286
0.000613283
0.508904
0.000613286
0.000613286
0.000613286
0.000613286
0.947406
0.441104
0.000613286
0.000613286
0.000613286
0.000613279
0.000614807
0.000613286
0.570471
0.000613286
0.000613286
0.461684
0.656233
0.524262
0.000612998
0.00100612
0.000613156
0.483169
0.000613286
0.000613286
0.000686961
0.000613286
0.000613286
0.000613285
0.000613286
0.000613286
0.000613286
0.0521103
0.000613286
0.000613247
0.000613286
0.000613286
0.000615555
0.000682132
0.000613286
14.0605
0.000613286
0.000697834
0.000613286
0.534386
0.0006943
0.000613286
0.000614285
0.000687317
0.000613246
0.579632
0.494142
0.000613286
0.000613285
0.000613286
0.000613286
0.000613286
0.000613286
0.000613286
0.000613286
0.000613286
0.000613286
0.000613286
0.000613099
0.000613286
0.000613249
0.000613284
0.000613285
0.00061281
0.128968
0.000613286
0.000613269
0.000613225
3.29419
0.000612449
0.000613286
0.000708742
0.000613286
0.000686761
0.396056
0.000613286
0.000613286
0.0006132
0.000613286
0.000613278
0.00061328
0.000613261
0.000612881
15.1959
0.000612863
0.500202
0.000613286
0.000704157
2.53676
0.000613286
0.000613286
0.000613286
0.000609739
0.000613286
0.000613262
0.000613286
0.000613286
0.507443
0.000691921
0.966246
0.000613265
37.8823
0.00158399
0.537603
0.00070243
0.0302717
0.000688778
0.547631
0.000613286
0.000613277
0.000649407
0.000613286
0.000679899
0.000614366
0.000613286
0.000613286
0.000613112
0.000827752
0.000675139
0.000613286
0.000613274
0.000696298
0.000612547
0.000613281
0.000613256
0.000708134
0.000613286
0.000613286
0.000613286
0.000612371
0.000613286
0.55149
0.000613286
0.000613923
0.000613286
0.000709527
0.000694473
0.000613286
0.000613275
0.554407
0.515546
0.000613286
0.000613286
0.000613286
0.000613286
0.000692838
0.00061327
0.0208702
0.553095
0.000613286
0.000613286
0.704669
0.000613685
0.000613286
0.000689104
0.000614053
0.000651581
0.000613072
0.524973
0.000704077
0.421269
0.555778
0.000615124
0.000613286
0.000698707
4.69722
0.000612471
0.520434
0.0006947
0.715848
0.000675667
0.000613286
0.045133
0.000693962
0.000613286
0.501799
0.000613286
0.492735
0.000613286
0.000613286
0.00069241
0.000702029
0.0799325
4.53852
0.113253
0.00143793
0.0240333
0.00748176
0.00708907
0.536803
0.000613272
0.000613286
0.00061328
0.553459
0.124031
0.64486
0.00437844
0.000612709
0.000613286
0.000676939
0.115142
0.000613286
4.5198
0.00269052
0.000612666
0.917984
0.000604164
0.000208814
0.000613286
0.000613286
0.000612918
0.527949
2.48742
0.000613286
0.000710414
0.000613286
0.131581
0.437845
0.000613286
0.000613265
0.000613286
0.000613286
0.0106474
0.00323606
0.000613286
0.000613286
0.000612413
0.486636
0.019676
0.692649
0.000613263
0.000613286
0.000613286
0.0167471
0.561365
0.422108
0.133994
0.431301
0.000613286
0.000621658
0.432283
0.000613277
0.0563657
0.000613286
0.000693492
0.000613286
0.000613847
0.000695121
0.000687444
0.000613286
0.000613286
0.000613286
0.000613157
0.559932
0.00070516
0.000613286
0.000613285
0.0132248
0.000613286
0.00073384
0.128366
0.661983
0.000613202
0.000613286
0.0313351
0.104479
8.21436
0.000613285
1.00946
0.79661
0.00823431
0.000614697
0.0465853
0.000613286
0.000613286
0.000613286
0.000613286
0.000613286
0.0688875
0.000696363
0.000613286
0.000613286
0.000613286
0.000613286
0.000613286
0.000613286
0.000612892
0.110388
0.685365
0.000613083
0.000613286
8.74506e-05
0.0865653
0.0548505
0.000613286
0.150876
0.000613286
0.000613286
0.000613286
0.0413161
0.500908
0.000613286
0.000690093
0.000613286
0.147566
0.000613286
0.000613286
0.000613286
0.000613286
0.244366
0.000613286
0.000613286
0.0163446
0.0725419
0.000612701
0.000613286
0.000613286
0.440945
0.780989
0.000613286
0.506786
0.000690828
0.000613286
0.000613286
0.0174212
0.00183761
0.000613286
0.707541
0.162989
0.000612688
0.000575087
0.000613286
0.000613286
0.000699035
0.000694625
0.000615404
0.000612438
0.0307682
0.000613286
0.000411155
0.000613286
0.000613286
0.120212
0.00167337
0.00464479
0.0016898
0.000613286
0.000613286
0.000681588
0.000688917
0.00920611
0.212204
0.00394502
0.000705622
0.000613057
0.000613594
0.000278337
0.000613286
0.0515569
0.000613285
0.000613286
0.618004
0.274685
0.000613274
0.000613286
0.000613286
0.000613286
0.000613286
0.000613286
0.00061322
0.000613286
0.000613286
0.574953
0.000613286
0.000613286
0.000613286
0.902736
0.000613286
0.000613286
0.000613265
0.434474
0.000613286
0.000613282
0.000613244
0.000613286
0.000613286
0.000613286
0.000613038
0.000613286
0.000613286
0.000613286
0.00061328
0.000595513
0.000613214
0.000698258
0.000646445
0.000708018
0.000613286
0.000695848
0.000699152
0.418927
0.000613284
0.000613283
0.000677906
0.0703133
0.000613286
0.384933
0.000688055
0.000613286
0.000613286
0.000614826
0.000613286
0.000613286
0.587498
0.000613286
0.000613286
0.000613284
0.000702797
0.489757
0.000613283
0.000689652
0.000613286
0.000680852
1.14131
2.26235
0.000683219
0.000613286
0.654983
0.000613286
0.000613286
0.000613286
0.000613281
0.000613286
0.000613286
0.155383
0.000613286
0.00061454
0.591131
0.000690012
0.000613286
0.000613493
0.000613286
0.653707
0.000710699
0.533682
0.000612968
0.430582
0.38899
0.00069489
0.000613286
0.00067673
0.000613286
0.000709327
0.000613286
0.000613286
0.000700659
2.35574
0.481321
0.000613286
0.00052204
0.000613242
0.406765
0.000612833
0.000613286
0.000613286
0.000613286
0.000613286
0.000613286
0.000613286
0.000613286
0.000613286
0.000613284
0.000613285
0.000613279
0.484881
0.000612383
0.116168
0.000613271
0.000613257
0.000694437
0.010372
0.000613259
0.000613284
0.000701342
0.000613286
0.000613516
0.000613287
0.000712379
0.650718
0.000613286
0.000613286
0.000613228
0.000613249
0.000613286
0.000613097
0.000613286
0.000613286
9.73704
0.000613286
0.82514
0.000613158
0.000613286
0.000612549
0.000612873
0.000683119
0.000613283
0.000613286
0.000613286
0.000613286
0.138134
0.000613286
0.000613263
0.526006
0.000613229
0.490984
0.000613286
0.00063899
0.000613286
0.000613286
0.666112
1.64671
0.000613278
0.000613076
0.200808
0.000675883
0.000613286
0.000613286
0.000613286
0.000613286
0.000613286
0.483638
0.249566
0.501057
0.000613286
0.537612
0.000613286
0.000613286
0.000613285
0.00063879
0.000647467
0.000613286
0.000613254
0.000613286
0.000613221
0.000613617
0.000613286
0.000613286
0.000613286
0.000612616
0.00204001
0.000691757
0.000613286
0.119111
0.130108
0.000613286
0.000578811
0.0747891
0.000613286
0.000613286
0.000613281
0.37808
0.000613286
0.000613286
0.469769
0.000698255
0.000613286
0.000613286
0.000613286
0.000613286
0.000647125
0.126238
0.000613286
0.000613286
0.416279
0.000613286
0.000613286
0.561509
0.000613266
0.000613286
0.000613286
0.000613286
0.479365
0.000613238
0.00061327
0.000613286
0.000613286
0.000685382
0.000613286
0.415781
0.000693977
0.00115585
0.000613286
0.000613286
0.000613286
0.000613285
0.000613279
0.000613286
0.0980405
0.12886
0.000673847
0.00144022
0.000613286
0.00068303
0.000613286
0.000613286
0.000613286
0.000613286
0.000613286
0.000613286
0.000613286
0.000613286
0.000613274
0.000613286
0.203291
0.000613281
0.685597
0.000613281
0.571095
0.554519
0.000613286
0.000686462
0.559195
0.0559492
0.00536437
0.000883324
0.000613244
0.000613286
0.000613286
0.000613286
0.0533553
0.000613286
0.129224
0.0155173
0.00299963
0.00519403
0.000648006
0.000533709
0.000613286
0.000626525
5.68169
0.000613286
3.27079
0.000616017
0.000612853
0.000613286
0.000613286
0.000947114
0.000613285
0.5164
0.000696844
8.34971
0.363779
0.582521
0.000689428
0.000613286
0.000613284
0.000613141
0.000613286
0.000613107
0.000613286
0.000613286
0.000613264
0.0455485
0.00070819
0.000613116
2.62975
0.0006131
0.000613225
0.000612761
0.000613284
0.0438703
0.115248
0.000613285
0.000613281
0.000613275
0.509034
0.0803809
0.000613227
0.000618547
0.539154
0.019368
0.000612649
0.000612447
0.550736
0.577855
0.000613286
0.000613286
0.000613286
0.000612419
0.000427241
0.000612561
0.381387
0.000613286
0.000613286
0.000613286
0.000613154
0.000616009
0.00906301
0.000613286
0.000613275
9.44967
0.103468
0.463545
0.000613286
0.00262896
0.757356
0.000613286
0.000613286
0.000613286
0.670706
0.000595278
0.000613286
0.000667522
0.000610582
0.000613286
0.000622018
0.000629733
0.000613057
0.000613286
0.000613286
0.000613286
0.000658928
0.000612593
0.000612559
0.00053488
0.000174778
0.000653698
0.000641484
0.000625198
0.000613251
0.57807
0.365095
0.000613282
0.638224
0.296489
0.000670896
0.000619205
0.103248
0.000243754
0.000613286
1.37336
0.469268
0.000570379
0.000613277
0.000613286
0.000613286
0.000613221
0.000613285
0.000612476
0.000613095
0.32549
0.000613286
0.000613286
0.00196021
0.000613286
0.000613239
0.253275
0.0847334
0.000641294
0.000618824
0.000613277
0.11245
0.000618521
0.469948
0.000612395
0.000613274
0.000612846
0.0676982
1.98937
0.000687581
0.000616291
7.62101
0.000613283
0.00969157
0.000613621
0.000613286
0.116032
0.000721142
0.000612466
0.00341091
0.000613092
0.000613286
0.107385
7.29685
1.36133
0.000613108
0.000613281
0.000613286
0.000613198
0.000614533
0.000614465
0.000620895
0.000613286
0.000613286
0.00181518
0.000613276
0.000613285
0.0220206
0.000613286
0.000319109
0.00289251
0.000613286
0.000613284
0.000290005
0.00165666
0.000624556
0.0316934
0.000613284
0.000986296
0.0989412
0.000732648
0.0983912
0.0006144
0.609076
0.000613286
0.000613286
0.000613262
0.132004
0.000689097
0.00061327
0.0132605
0.46052
0.000855927
0.0785196
0.000613286
0.0438067
0.112651
0.000614184
0.000613286
0.000613286
0.00062213
0.000613269
0.000613236
0.176123
0.000614794
0.000625805
0.000621423
0.000739846
0.000642046
0.000613284
0.000613285
0.000484977
0.245508
0.000613286
0.000613737
0.000613286
0.128611
0.000612731
0.116114
4.19175
0.000613941
0.185285
1.17694
0.00625505
0.0109674
0.0907961
0.966833
0.000614176
0.555319
8.18439e-05
0.000615709
0.000672547
0.000613286
0.0150213
0.000612903
0.000613291
0.000705237
0.000614398
0.480725
0.000621415
0.000689095
0.586287
2.67591
0.000613124
1.09508
0.000698309
0.590543
0.958275
0.000612777
0.000559948
0.211007
3.64185
0.000699077
0.000613286
0.584931
0.000613286
0.000676006
1.66488
0.000688347
0.000613277
0.468938
0.0539822
0.000613286
0.00745326
0.000613286
0.000613286
0.000613286
0.000613124
0.120431
0.00068359
0.000613286
0.103655
0.371223
0.000612489
0.000613364
45.2616
0.000613286
0.000613286
0.000612841
0.000648394
0.000617253
0.000613285
0.00512847
0.000613286
1.55697
0.205017
0.000615141
0.482278
0.233718
0.00357234
0.000824746
0.000613323
0.20321
0.000623649
0.0955618
2.70477
0.000502751
0.000703645
0.000661284
0.000613286
0.106434
0.000613221
0.463548
0.000613286
0.000674288
0.000613247
0.000700127
0.000642827
0.0859486
0.0909464
0.000698705
0.000613248
0.973488
0.438798
0.000613286
0.000613286
2.05353
0.0607675
0.000613286
0.623102
0.000612687
0.000609141
0.000622448
0.626696
0.00061255
0.000613277
0.00355421
1.0912
0.000692377
0.000612867
0.000684636
0.000613286
0.000612308
0.0834405
0.000613286
0.49843
0.444884
0.000612686
0.00330752
0.000613286
0.0930678
0.714795
0.000613286
0.000722667
0.0157944
0.000613286
0.000613286
0.000612435
0.169137
0.000613286
0.000614316
0.000613264
0.000710913
0.000614157
0.000614255
0.000613414
0.000613286
0.000613284
0.000613273
0.000613286
0.000613286
0.000612315
0.000613285
0.000613285
0.00774611
0.00061354
0.000613209
1.02904
0.000612875
0.00061324
0.000613244
0.000613538
0.000613286
0.000704233
0.00188623
0.000613286
0.00061291
0.000614318
0.000614641
0.0764974
0.162288
0.000706706
0.403283
0.504162
0.000613251
0.000613286
0.00400581
1.1591
0.000695132
0.628256
0.000612969
0.000613286
0.478465
0.000696767
6.53889
0.000683393
0.000719464
0.000672889
0.000613286
7.13615
0.000613285
0.000613286
0.000688047
4.00758
0.0875174
0.369505
3.90791
0.000688628
0.000682259
0.00108867
0.000613285
3.62739
2.3638
0.000685491
1.5451
0.000613286
0.0146073
0.000613286
0.000615792
0.000613286
0.00135069
0.000613286
0.00111757
0.000613217
0.000613278
0.000699774
0.000623285
0.121385
0.000614308
0.000613286
0.000613284
0.000650622
0.00061328
0.000613286
0.276079
0.000613286
0.252398
0.000613286
0.000613275
0.000612872
0.000612958
0.000613145
0.000613286
0.00053663
0.000613286
0.00120269
0.202188
0.000613337
0.000613262
0.000612602
0.000613285
0.000613251
0.000613286
0.0426539
0.000613286
0.000613286
0.000613286
0.000694755
0.382813
0.000613286
0.000613286
0.000613286
4.97579
0.000613286
0.00061297
0.000612856
0.000613077
0.000613285
0.571238
0.000613192
0.000613283
0.000613091
1.96029
0.000612706
0.000612398
0.000613286
0.564613
0.000613737
0.000614151
0.000615462
0.000613284
0.000614038
0.000613286
0.000628311
0.000613286
0.000613015
0.000609355
0.00366716
0.00350978
0.000612388
0.000570358
0.405817
10.7386
0.000613276
0.0428133
0.000615614
0.000682552
0.000612369
3.12208e-06
0.119927
0.000613286
0.000613286
0.000612295
0.000613257
0.000629704
0.000699446
0.000613286
0.000613286
0.000611364
0.000612454
0.000613707
0.0540451
0.000613232
3.03596
0.000346948
0.000613286
0.000614862
0.187698
0.000614774
0.000611075
0.000613286
0.000612423
0.459003
0.000613233
4.0245
0.000613286
0.000614143
0.000613271
0.605691
0.000685967
0.000613286
0.000613286
0.000613286
0.000613286
0.000613964
0.000613286
0.000619962
0.000613286
0.000615276
0.000613493
0.000705951
0.000613286
0.129081
0.629943
0.000613286
0.0522449
0.0404626
0.000689133
0.000612643
0.000613286
0.540294
0.000633712
0.0826809
0.0592261
0.000613278
0.000613286
0.000752367
0.000613286
0.000621351
0.000613286
0.000613286
0.000700693
0.00254589
0.000613281
0.000613286
3.38902
0.000613286
0.000613285
0.000613286
0.000613286
0.298222
0.574946
8.97483
0.000613286
0.000613286
0.000613285
0.53841
0.000614395
0.0340514
0.648239
0.000698266
0.000613286
0.000613283
0.000613276
0.000613286
1.31519
2.20025
0.000613286
0.00061327
0.000613286
0.000613286
0.478164
0.000613286
0.536555
0.000613286
0.56164
0.000701608
0.000624088
0.000613286
0.000613286
0.000613286
0.000613252
0.000613285
0.000613273
0.000613286
0.460064
0.000613231
0.000636935
0.123347
0.000607884
0.000613286
0.000613166
0.000613286
0.000613286
0.000614204
1.83227
0.000613286
0.000613286
0.000613286
0.590486
0.000676734
4.50778
0.00443312
0.547854
0.509027
0.00070537
14.0624
0.000611726
0.449926
0.000613235
0.000613184
0.000701806
0.152295
0.0655643
0.000981057
0.000612842
0.507041
0.745735
0.000613286
0.000613286
0.000613766
0.000613286
0.000613285
0.000613283
0.000680895
0.216876
0.000613286
1.0994
0.0729434
0.000613286
0.000613286
0.000613286
0.000613284
0.000613286
0.000613286
0.000613286
0.000702303
0.000105934
0.000613878
0.000618218
3.65181
0.000614512
0.000662669
0.542665
0.000613249
0.000697289
0.000619309
0.000614607
0.000697437
0.000707481
0.000616964
0.669041
0.000613781
0.000431218
0.000613286
0.000613286
0.000615755
0.000612475
0.000612746
0.000613262
0.000613286
0.662872
0.000613286
0.000612551
0.000613246
0.000613286
0.000612529
0.000612404
0.000612552
0.000613472
0.611347
0.000613286
0.000613835
0.000613269
0.000612418
0.000613287
0.000613286
13.0158
0.000613465
0.000612737
0.403445
0.000614568
0.000613286
0.000613227
0.000617492
0.00158359
0.0725674
0.000614617
0.000613286
0.0006228
0.000613229
0.000613061
0.000613259
0.0169509
0.000613275
0.000613286
0.000613286
0.0140902
0.000681593
0.000613284
0.000699152
0.000613271
0.621975
0.000685226
0.000612883
0.000612316
0.000613286
0.000613286
0.000612779
0.000613286
0.000613286
0.00061328
0.00070712
0.000613286
0.000613188
0.000615334
0.621581
0.000632081
0.000613286
0.000614199
0.000719585
0.000614152
0.0373386
0.443914
0.0094044
0.000615633
0.000613729
0.000705253
0.000613286
0.000614731
0.000613286
0.00880689
0.390555
0.0007024
0.493122
0.718423
0.000613285
0.000613286
0.786673
0.000613286
0.000613286
0.0685183
0.000686094
0.000613284
0.000613286
0.00061415
0.000613286
0.000613285
0.000613277
0.000613286
0.000613286
0.621242
0.000613286
0.000613286
0.000613286
0.000613286
0.000613286
0.221956
0.188373
0.000706398
0.000613285
0.000690852
0.000826255
0.000613286
0.000613286
0.000613286
0.00817434
0.489265
0.00353904
0.000613087
4.37729
0.000613286
0.000613285
0.217537
0.410535
0.000612941
0.000613385
0.000613286
0.000613275
0.000613283
0.000613286
0.000613107
0.000613022
0.000615124
0.0232532
0.696567
0.00061325
0.000613258
0.053435
0.000613268
2.87485
0.000613286
0.000687906
0.000613286
0.000613286
0.000613286
0.000559899
0.109442
0.000613297
0.000613161
0.000613286
0.000613286
0.00058044
0.000613286
0.813144
0.00068204
2.47085e-06
0.434089
0.000613286
0.111197
0.000613286
0.000613286
0.000613286
0.000613286
0.000613286
0.000613282
0.584282
0.000613286
0.000840449
0.000613286
0.000613709
0.000612503
20.9378
0.000613286
0.000613286
0.0718481
0.573907
0.000613286
0.000613162
0.000613286
0.000613286
0.00136355
0.000613286
0.573211
0.000613099
0.000613285
0.000866317
0.530047
0.000612333
0.000613209
0.000613285
0.000613228
0.000613286
0.000613286
0.0252173
0.000612367
0.000613286
0.000680291
0.000613286
0.000613286
0.000613286
0.000613286
0.000613876
0.00084675
0.000613286
0.00061414
0.000507901
4.7876
0.193789
0.000613286
0.000613286
111.479
0.000613286
0.000612938
0.0121901
0.000613286
0.0486932
0.116573
0.136626
0.539008
0.000613285
0.000612886
0.000613177
0.000613286
0.000612851
0.479912
0.000613263
0.459762
0.000613286
0.00153867
0.0021689
0.000613167
0.405087
0.000613283
0.000612865
0.000618587
0.00682344
0.671331
0.000613286
0.138805
0.0006124
0.000613286
0.000613286
0.000612512
0.000612499
0.000613286
2.82006
0.495044
0.000613768
0.000613286
0.000613993
0.000613286
0.000682169
0.000613286
0.000622847
0.000613286
0.000613286
0.000612755
0.000684276
0.000613285
0.000647021
0.425042
0.000612332
0.000612371
0.000613286
3.29453
0.000612335
0.000613286
0.000613276
4.3699
0.000613286
0.000613286
0.000613286
0.000615266
3.58014
1.33708
1.06544
0.000577036
7.77473
0.000613283
0.000612516
0.000613668
0.000632664
0.000613154
0.000613247
0.000668418
0.000653784
0.0974529
0.000613281
0.000613286
0.520158
0.477812
0.235052
0.000613286
0.000613285
0.0106104
48.8018
0.00131503
5.86085e-05
0.0480816
0.000613286
0.000612737
0.00053956
0.000613286
0.000613286
0.000690646
0.200605
0.000566103
4.19165
0.534712
2.71125
0.000613281
0.0680573
0.00207151
0.000613284
0.000613285
2.73398
0.000614235
0.000613275
0.000613286
0.000613189
0.000614801
0.000631804
0.000613928
0.487741
0.000613286
0.000613286
0.000613284
0.000612957
0.000671364
0.00604066
0.000613193
0.000613286
0.000613286
0.0179437
3.50087
0.000613285
0.000612366
0.00061025
0.000613279
0.00061485
0.000613286
0.000613286
2.48858
0.000614758
0.0447633
0.000613286
0.0665054
0.000613286
0.000621439
0.000629147
4.72726
0.000613286
0.000615099
0.000618661
0.000613286
0.000613286
0.000613181
0.000613286
0.000614005
0.000619239
0.00062552
4.44818
0.0706116
0.0012095
0.000690947
0.000696793
0.000693249
0.000717615
0.000613286
0.000613286
0.000692165
0.000613286
0.000679439
0.000613286
0.000613528
0.00061234
0.000685428
0.000613286
0.000615567
0.00071148
0.000613286
0.000613286
0.000612555
0.000613286
0.000612457
0.000613286
0.373791
0.000613286
0.000613285
0.000530254
0.000613286
0.416169
1.10497
0.501644
0.000781013
0.493267
0.283713
0.54542
0.000613286
0.000613286
0.000613286
0.436951
0.000613286
1.31172
0.000613279
0.000613264
0.000613286
0.000613286
0.000613286
0.000613276
0.000613285
0.000612598
0.000613286
0.577094
0.000613286
0.000613286
0.000807806
0.000614344
0.000613284
2.60626
0.416359
0.000613286
0.000613286
0.000613286
0.714533
3.86931
3.34748
0.000595642
4.45623
0.000613285
0.000613286
0.000613286
0.000612693
0.000613286
0.000613286
0.000682919
0.000613286
0.000613286
0.000613286
0.000613873
0.000613281
0.000613268
0.000612729
0.000613286
0.00410657
0.00185671
0.00254735
0.00356382
0.0547663
0.000613285
0.000613282
3.3037
0.000610598
0.000613286
0.123924
0.000695944
0.000613284
0.00061308
0.000719811
0.167546
0.0589038
0.000613285
0.000613286
0.000690538
8.11203
0.000613286
0.000613286
0.000613286
0.00413218
0.000621688
0.000614032
0.000728936
0.000613286
0.000613286
0.000613286
0.00061328
0.000613193
0.000613139
0.000613285
0.000613286
0.000613286
0.000613284
0.000613284
0.000613279
0.000613283
0.000615702
0.000613286
0.00425226
0.000615445
1.70368
0.000613215
0.500018
0.540882
0.000782157
0.000623631
0.000613286
0.000612741
0.000612491
0.110517
0.253294
0.426772
0.000614243
2.88294
0.0295815
0.000616527
0.000618553
0.00068828
0.000571539
0.000614263
3.75466
0.00402706
0.000594432
0.000613286
0.000613286
0.000612604
0.000612385
0.460313
0.00061379
0.00135721
0.000615695
0.000614029
0.000612279
0.000613276
0.000613286
0.000616769
0.000626869
0.000612641
0.00061328
0.720927
0.000566084
0.000613286
0.00061321
0.000611538
0.000613111
0.000613286
0.000613286
0.504901
0.000613286
0.000613286
0.000613286
0.000586541
0.000613871
0.000614975
0.000615665
0.000613286
0.000573098
0.000613011
0.00061214
0.000613279
0.000615089
0.0385778
0.153406
0.000612715
0.000563291
0.000613255
0.000613208
0.000956805
0.859528
0.228036
0.00405562
0.657127
0.000613286
0.000285355
0.000613286
0.000613286
0.000613286
0.000613662
0.000613286
0.111025
0.000613285
0.201312
0.000617588
0.000612662
0.000613284
0.000697889
0.00061409
0.58456
0.000613286
0.00116684
0.000613286
0.000613347
0.000618741
0.000613286
0.000613279
0.28991
0.000613285
0.000613286
0.000613282
0.000989504
1.47201
0.000613286
0.0103217
0.000613286
0.000613285
0.000613284
0.000613286
0.000613286
0.000613281
0.000613269
0.000613286
0.000613286
0.000613286
0.00190965
0.000613286
0.000577972
0.000612903
0.000758106
0.000701034
0.131516
3.87914
0.000613286
0.000613286
0.000613285
0.0291286
0.000624865
0.000613286
0.00061327
0.000190464
0.000639223
0.000614095
0.0821346
0.000628565
0.000613275
0.430004
0.447236
0.000614017
0.000613284
0.000612681
0.00061373
0.59212
0.000611815
0.000634285
0.000613286
0.000613286
0.0937187
5.15128
0.000613931
0.000623216
0.0604735
0.000612318
0.000613293
0.000697554
0.000613284
0.158777
0.000684893
0.000679597
0.000703195
0.000613154
0.000613228
0.413989
0.00092441
0.000613269
0.000613285
0.000613277
0.000613286
0.000613286
0.000613286
0.471662
0.20063
0.20533
0.000613286
0.000613279
0.000613286
0.00061283
0.000613689
0.000613139
0.000613282
0.000613831
0.00674137
0.000613226
0.380523
0.469016
0.000613286
0.000612913
0.000613268
2.92421
0.000613286
0.000614433
0.00065907
0.572371
0.000612801
0.000613286
0.000613189
0.000613286
0.000614012
1.76866
0.000614503
0.000612501
0.00811718
0.000646141
0.000613286
5.14644
0.000613084
0.000614529
0.000614545
0.000613281
0.909307
0.000613286
0.000613286
0.000612526
0.00061366
0.000614002
0.000613554
0.000712116
0.000613832
0.00062992
0.000614
0.000613781
0.000614311
0.000613286
0.000613915
0.000613093
0.000715405
0.420591
5.21688
0.000615272
0.000614553
0.000681628
0.000613286
0.000718315
0.628067
0.000614574
0.000698876
0.22794
0.000612927
0.000686458
0.000615878
0.000613286
1.1254
0.130157
0.000623701
0.000697871
0.000681294
0.317713
0.000613286
0.000612415
0.000614358
0.00062431
0.000614265
0.000613011
0.00272929
0.00061294
0.000612491
0.000708442
0.135271
32.5919
0.000613285
0.32469
0.000613096
0.324354
0.000612371
0.000613286
0.755621
0.000612801
0.00071522
0.000618436
0.000614345
0.000708432
5.72247
0.000614015
0.0413602
0.000612514
0.564171
0.00429461
0.000637326
0.000613285
0.000613861
0.14494
0.111347
0.000619706
0.000613282
0.000613286
0.781475
0.000613286
0.000613286
0.000638278
0.000624985
0.000681693
0.000613286
0.000613272
0.000613284
0.56013
0.000612699
0.000613285
0.000613286
0.114643
0.000612957
0.000613286
0.000616727
0.000699116
0.000613228
0.000612577
0.426661
0.0138185
0.000613286
0.000613286
0.649772
0.0103591
0.000612863
0.272606
0.000678494
0.000686247
0.031743
0.000613281
0.000614071
0.000687885
0.000613286
0.000613286
0.000631368
0.000610385
1.17324
0.00061326
0.000439049
0.113386
0.00103057
0.362679
0.000614731
0.000625238
1.49422e-05
6.26784
0.361027
0.00681334
0.505419
0.000613168
0.000613278
0.521967
0.000613286
0.00061324
0.47817
0.143176
0.000612313
0.000613377
0.000613285
0.000613286
0.000703412
0.474015
0.000613282
0.047382
0.000613286
0.000613257
0.262668
0.59657
3.02238
0.000613942
0.718401
0.000652917
0.00151903
0.105918
0.000613286
0.000613286
0.000613286
0.000613285
0.000686337
0.000737961
0.000613286
0.000613152
0.136914
5.18856
0.000702514
0.00291662
0.474938
0.00415137
0.000682815
5.20921
0.000613281
3.55782
0.000680852
0.480009
0.000613286
0.000613286
0.0442282
0.000613286
0.000613286
0.000613263
0.000613286
0.000613286
0.000685815
0.472328
0.000409097
0.000613286
0.000557284
0.0156545
0.000684721
0.000613286
0.000613286
0.000613285
0.000613286
0.0807564
0.000613286
0.663382
0.66123
0.000613286
0.000613286
3.7438
0.000627814
0.910754
0.587344
0.000613273
0.000710174
0.546454
0.000613286
0.000613286
0.000613286
0.000693753
0.000613286
0.000613286
0.000613286
0.000613286
0.000697174
0.000613286
0.00061393
0.000655359
0.000648654
0.000725017
0.000613286
0.501089
0.55879
1.22284
0.000546103
0.000613286
0.738849
0.000613286
0.000613286
0.000613286
0.646864
0.000613286
0.000703919
0.578157
0.000613286
0.000613286
0.450735
0.000613286
0.000613286
4.94639
0.58681
0.00061438
0.593843
0.000613286
0.000613286
0.000613286
0.000613286
0.000613286
0.784354
0.000613286
0.823476
0.00069417
0.000613286
0.000613286
0.394328
0.000613286
0.437454
0.00068759
0.000613286
0.000613286
0.000613286
0.000613286
0.000681783
0.495332
0.000613286
0.000700758
0.508775
0.000613286
0.000613286
0.000689276
0.000613286
0.000613286
0.000691667
0.000686303
0.000613286
0.000613286
0.000612653
0.455763
0.000697983