/*--------------------------------*- C++ -*----------------------------------*\
| =========                 |                                                 |
| \\      /  F ield         | OpenFOAM: The Open Source CFD Toolbox           |
|  \\    /   O peration     | Version:  2312                                  |
|   \\  /    A nd           | Website:  www.openfoam.com                      |
|    \\/     M anipulation  |                                                 |
\*---------------------------------------------------------------------------*/
FoamFile
{
    version     2.0;
    format      ascii;
    arch        "LSB;label=32;scalar=64";
    class       surfaceScalarField;
    location    "0.15";
    object      phi;
}
// * * * * * * * * * * * * * * * * * * * * * * * * * * * * * * * * * * * * * //

dimensions      [1 0 -1 0 0 0 0];

oriented        oriented;

internalField   nonuniform List<scalar> 
62453
(
6.23049
1.22964
-1.69514
-1.24277
22.6381
-0.00317875
-28.3781
3.26953
-4.89131e-11
3.24445e-11
4.37753e-11
-6.48774e-11
1.66485e-10
6.77359e-11
1.21993e-12
-2.84587e-11
3.50437e-11
9.66087e-11
1.14118e-11
-2.83762e-11
-4.62984e-12
8.84094e-11
4.18375e-11
-2.0462e-11
64.4322
78.3469
-73.9283
-75.2578
15.9414
-36.3694
-32.7294
-1.90613e-10
1.18569e-10
-1.00796e-10
-1.27257e-10
4.99111e-11
5.54507e-12
-1.11212e-11
5.97506e-11
-0.861961
-32.9364
33.4253
33.2519
-30.8707
-3.58927
2.44052e-08
2.34799e-08
-1.46115e-08
1.26164e-07
-2.13612e-11
-2.52079e-11
2.44865e-12
7.65527e-11
-1.97988e-11
6.4709e-12
-3.0793e-11
-21.5591
-18.8926
51.9484
-7.53202
-4.12775e-11
9.09375e-11
5.7256e-11
-4.68143e-11
-1.77527e-11
1.48912e-10
1.08558e-10
-1.38026e-10
34.3212
-10.4599
11.8804
-20.3713
2.61423e-11
8.13305e-11
-5.00008e-11
4.70501e-11
1.78845e-11
-2.46215e-11
-6.46653e-13
-1.10207e-10
7.49634e-11
1.6675e-11
1.01605e-10
-1.31626e-11
5.43225e-11
9.56959e-12
5.62167e-11
-4.3752e-11
1.35456e-11
3.63106e-11
-3.02012e-10
7.92679e-10
-1.56956e-10
-9.0412e-12
8.71117e-11
7.76582e-11
-1.8359e-10
-5.25885e-11
2.66606e-11
6.06969e-11
1.24387e-10
-5.21032e-11
181.25
23.5429
-201.061
4.69529e-05
2.63728e-07
-1.68325e-06
-2.43673e-06
18.4012
24.6537
-42.2989
-7.35031e-13
1.26333e-11
-1.27888e-10
-8.86277
45.6607
65.1175
-111.88
-2.77405e-05
-4.00055e-05
-5.93345e-05
0.000620223
31.8682
-61.1699
20.4176
-4.32338
-0.000409053
-0.00039494
-0.000378045
0.00502036
6.32836e-05
3.5553e-05
-1.40658e-05
2.39277e-06
0.0171257
0.174515
-0.0372485
-0.00947165
0.459963
0.207759
-0.0626369
-0.176295
3.56074e-11
-4.17116e-11
-3.15192e-11
2.77627e-11
9.53547e-12
-3.17221e-12
-7.59066e-11
-3.35188e-11
-6.31618e-11
-1.10949e-10
-6.28022e-12
-6.37309e-11
2.18789e-11
4.29642e-11
-2.4003e-10
-9.27261e-11
-5.96575
-10.957
22.3602
1.36455e-06
-5.90587e-07
3.35189e-07
4.32122e-07
56.9947
45.7853
-34.7483
-67.5158
0.3045
-0.256612
0.93753
-0.216588
-4.54105e-12
-7.02775e-11
5.83618e-11
-2.84022e-11
1.3317
169.893
-10.8508
-171.461
21.0623
-26.1493
45.2006
-1.16686e-10
5.61875e-11
1.97177e-11
-2.6377e-11
-2.90359e-06
2.81583e-05
-4.87322e-06
159.562
-119.929
-128.633
92.5963
4.85814e-11
-4.33978e-11
-7.95119e-11
5.25676e-11
-5.3189
-4.21618
5.41781
4.22255
7.5626e-11
-4.76338e-11
5.04288e-11
3.3277e-11
-45.4259
4.26762
128.672
-86.1964
1.75513e-10
-1.02342e-10
-1.67582e-10
7.02873e-11
-1.35193e-10
-6.79671e-11
-0.0419533
0.0155135
0.18501
5.38669e-11
-4.63142e-11
-2.07618e-12
-1.23209e-10
-3.56746e-11
-3.82809e-11
-0.206735
-0.335123
0.135459
0.92923
-159.214
26.6525
23.184
114.183
-4.49995e-11
-2.34429e-11
2.76065e-11
-0.000304489
0.00193484
-0.000413527
-1.03026e-11
-5.32313e-11
5.91571e-11
1.53664
19.5237
-12.2608
-11.2799
3.85346e-11
5.54865e-11
-5.96372e-11
6.564e-11
-23.4474
56.4196
11.0386
-43.3485
2.3424e-11
-2.12016e-11
-5.26411e-11
1.00179e-10
2.46928e-11
1.99303e-11
-1.85343e-11
7.64017e-11
-1.07434e-10
6.42777e-11
-2.1497e-10
-4.80562
11.3033
-1.0059
1.73352
-230.415
91.6157
143.843
-7.68023e-11
-5.25375e-11
6.50353e-12
-3.63428e-11
-9.80873e-11
2.02401e-11
6.37465e-12
-7.75552
-1.33416
0.829479
8.25895
1.26533e-11
-1.13479e-10
6.63036e-12
-9.41071e-11
6.52131e-11
-3.9967e-11
5.82716e-11
1.85801e-10
-2.46349e-10
-1.00136e-10
-3.25364e-11
-7.04752e-11
-1.16402e-11
6.90118e-11
-4.65693e-11
1.24944e-10
-6.48554e-11
2.02074e-10
2.08624e-10
9.98125e-11
-10.2001
12.9145
-9.56834
7.25105
-126.43
2.25074
118.662
-6.55992e-11
-3.08247e-11
5.69835e-11
-1.92593e-11
-6.4194e-11
-6.85669e-11
-8.0067e-11
6.20829e-11
5.3671e-11
9.78915e-11
-1.8685e-11
-8.06637e-11
7.97905
1.37914
7.721
-17.1692
2.78467e-11
6.86449e-11
-3.51414e-11
5.01045e-11
-4.37856e-11
-0.00568822
0.0640044
-0.0129014
-0.0081623
-1.07063e-10
1.16834e-11
2.93117e-11
5.98257e-12
-7.4908e-12
-5.30373e-11
-4.13378e-11
-8.88714e-12
1.12214e-11
4.29359e-11
-8.70299e-12
-3.77058e-11
-1.19127e-11
-1.03154e-12
7.04843e-11
4.17705e-11
0.00427355
-0.000527413
-0.000134031
-0.00123035
-9.18982
0.734443
0.588991
8.78423
-2.90006
39.1374
-36.1235
7.27459e-11
-5.27024e-11
-1.53925e-08
2.37316e-08
1.37477e-07
94.231
-55.7097
-55.5392
20.1327
19.1562
-43.6046
2.87416
0.754826
1.3449
-0.920254
-17.5641
5.31984
5.95507
4.26371
-1.6845e-10
-8.77168e-11
-1.37397e-10
-6.4026e-11
-6.21045e-11
1.12611e-10
1.87444e-10
6.09484e-12
346.229
-45.5547
56.8593
-351.587
-1.17549e-10
-1.72447e-11
-4.52015e-11
-10.4151
-3.93702
13.5959
1.8041
2.56217e-11
-1.13688e-10
-9.71574e-11
-4.79698e-11
-3.91925e-11
-9.00486e-13
4.4158e-11
-43.7346
-33.2333
77.2359
7.00373
-15.463
11.1639
-4.25813
0.12339
0.0452472
0.0403587
-0.0666709
-4.19134e-11
8.97893e-11
4.57915e-11
-9.99724e-11
-1.72183e-10
-1.89297e-10
-1.84803e-10
1.00522e-10
-141.467
79.5508
-64.2972
124.908
-1.48901e-10
4.51915e-14
8.94517e-11
-1.30385e-10
1.55696
-4.88501
5.50447
-2.04803
-4.94014e-12
5.77851e-11
-6.49095e-11
3.5324e-05
0.00134285
-0.000147045
-0.000128742
0.00038424
-0.000138025
0.000523189
14.7642
4.60862
1.03243
-20.3786
1.29278e-10
-4.57586e-11
-6.98271e-11
-2.3955e-11
2.43079e-11
-3.30048e-11
-1.81077e-10
8.74114
-0.925543
11.4775
-16.6485
35.7802
-17.2006
46.1602
-44.3471
-35.4877
6.59977
45.5128
-8.06503
6.9963
-8.08239
22.2046
-55.1327
-4.5188
-12.5016
73.3027
-7.45029
-3.02695
-2.9371
13.9053
-3.39138
-0.747195
4.247
0.596809
0.392396
-0.0482622
-0.257831
4.72797
-11.683
1.98187
13.6291
-2.82749e-09
1.8854e-08
2.6532e-09
2.45141e-05
2.11234e-05
-6.92854e-06
6.01729e-07
-1.54736e-11
5.72644e-11
3.95965e-11
-9.10219
7.16668
-6.28505
8.29368
-3.64748
20.1786
-3.47198
-4.46231
8.37963e-06
-1.60734e-06
-1.51222e-06
3.67394e-06
-149.245
219.702
-116.85
42.1742
8.58373e-06
-1.43779e-06
-2.54592e-06
7.1434e-06
7.19674e-12
5.29681e-12
-5.94234e-11
-2.11802e-11
-1.11823e-10
2.02074e-10
3.6738e-11
-3.37482e-10
-8.01912
10.8758
-10.4997
8.07304
-20.5173
14.9911
2.96933
-4.3626e-11
3.98046e-11
8.23002e-11
-2.8025e-12
5.08179
26.9517
-28.666
-3.45037
-25.9878
16.8822
16.6891
-12.6228
-3.8805e-11
-2.07231e-11
-8.35546e-11
-3.97503e-11
3.50668e-11
-1.15554e-11
-6.73359e-11
8.67976e-12
-4.84682e-06
-3.0344e-06
-1.02887e-05
4.10395e-05
-13.2485
3.05319
16.2557
7.21989
-5.00782e-11
-1.13673e-11
-2.95821e-11
8.32514e-11
-4.01038
-3.07704
1.45762
5.08294e-11
7.62976e-11
-8.12937e-11
-1.46136e-10
6.54722e-12
2.98815e-11
3.55292e-12
7.60138e-12
1.59195e-10
-1.11329e-11
-6.08521e-11
9.9863e-11
9.35521
20.3639
-49.7222
9.76639
0.0001655
7.2148e-05
-6.37213e-06
-1.96397e-05
-6.94381e-11
-3.09216e-12
-7.0627e-11
3.78298e-10
-3.56017e-07
-2.06738e-07
2.77397e-06
7.10899e-08
0.355565
-0.145145
0.0817881
0.295298
222.782
-37.6608
-161.532
-0.773021
-7.75689
1.15825
7.20541
-0.50313
1.03974
-0.635575
0.969746
0.447297
4.80568
0.62536
-5.81994
-2.26526e-12
-2.30939e-11
8.44741e-11
4.63496e-11
8.08792e-12
-8.09121e-12
1.73643e-10
3.69811e-11
5.4954
0.251388
-0.167583
-5.5683
-1.22309e-07
-2.44562e-07
2.05454e-06
-2.54453e-08
6.8974
-3.7927
5.88338
-8.63974
-3.04097e-12
-3.65975e-12
-6.74227e-12
-5.16082e-11
-3.17596e-11
7.36104e-11
1.19752e-10
-9.46582e-11
0.00285882
0.00656684
0.0132068
-0.00517334
1.06305e-10
1.02792e-11
-9.32731e-11
-4.68621e-11
2.24057e-10
-2.38054e-11
8.59836e-11
-2.70025e-11
-1.32283e-11
-3.17887e-11
2.05865e-12
-5.16995e-12
4.90477e-11
8.03308e-12
2.83661e-11
4.69594e-10
-1.42899e-10
2.01013e-11
1.19591e-10
-0.582395
-1.80733
4.40049
1.82232e-11
-3.79442e-11
8.01708e-12
1.06891e-12
-0.108467
-0.070667
0.667826
-0.106546
-1.40714e-09
4.9766e-09
7.76588e-10
-1.57931e-10
-9.57148e-11
-7.02062e-11
1.21718e-10
-7.17376
-8.04171
14.2951
3.87068e-11
-2.30839e-11
5.74368e-11
-1.0291e-10
-2.02259e-11
-6.45955e-11
-3.94649e-11
2.99041e-12
4.52307e-11
-7.58312e-11
-0.00120737
0.00071063
0.00409785
-0.000882477
1.46748e-06
1.39064e-06
-1.96607e-06
1.20934e-05
-0.000577624
0.00138066
-0.000165298
4.51767e-11
1.41934e-11
-8.63927e-11
-4.51595e-11
9.14114e-11
-7.97833e-11
2.3871e-11
-0.00233572
0.032808
-0.00753564
-0.000802251
0.00234315
-0.000622508
0.000266989
-14.3253
7.87727
6.55523
256.733
-170.899
-216.224
142.731
-121.683
-52.1068
129.864
-8.01976
-1.51042
50.0473
-52.1075
-0.0188247
1.15675
-0.183391
-0.122711
-6.69041e-11
-4.0922e-11
-4.09911e-11
4.21089e-11
-2.10969e-12
1.91483e-11
-0.148986
0.0850233
-0.0241353
0.400582
5.49946
-2.1236
-2.61716
3.50833
59.2686
14.4258
-17.5578
-59.3538
-2.89496
1.84712
-5.27775
6.34157
-3.20267
-2.91786
3.24644
-1.11874e-11
6.73287e-11
-5.3493e-11
7.47979e-11
9.66572e-11
9.91869e-11
7.23636e-11
1.99373e-10
0.0178101
-0.0917499
0.285897
-0.00496712
-0.0113821
-0.0746445
0.251062
0.209569
-0.0833197
0.652211
-0.360184
-47.5898
15.0366
27.232
2.73611
-27.4776
-18.6521
45.4698
1.08184e-10
5.14137e-11
-7.34797e-11
-4.38433e-12
-2.46119e-13
-1.91747e-10
-1.46899e-11
-6.63104e-11
-0.590471
1.96899
-0.215276
-5.96297
11.8784
-1.62471
3.95339
0.308707
25.6621
-17.431
-1.57062e-10
1.21959e-10
-3.2043e-11
4.60175e-12
-5.30521e-11
1.87498e-12
-3.51527
1.01886
6.62264
-1.01988
-9.44191
1.90629
18.5048
-10.9708
-6.11192e-12
8.5936e-11
-7.34999e-11
1.13569e-10
-5.63674e-11
-2.15313e-11
4.82764e-11
-7.26192e-11
0.00522008
0.00247683
-0.00141316
-0.0011991
-5.08043e-12
-4.87524e-12
-8.48029e-11
4.78868e-11
-7.61017
3.60934
2.36424
1.64913
-5.72914e-11
1.71304e-11
-5.49996e-12
6.7136e-11
-2.35461e-11
-5.62493e-11
-3.54075e-12
14.9891
-0.11894
-19.3506
5.01991
0.0122916
-0.00833337
-0.00627722
1.55835e-11
-1.40152e-11
4.5182e-11
157.401
-103.45
180.241
-239.429
1.23851e-09
4.0377e-11
-2.28388e-10
-1.26808e-10
-0.171145
0.48659
-117.918
76.6617
-115.59
159.552
-3.53337
0.24945
0.15116
8.05154
-0.00130979
0.00354574
0.00397132
-0.000934664
-6.11266e-11
3.72985e-11
-5.48766e-11
1.30266e-10
-3.31315e-11
-1.55135e-11
1.57767e-10
-3.14684e-11
2.11007e-12
-2.31402e-11
6.76773e-11
9.48897e-11
-1.23803e-11
9.83516e-11
3.50496e-11
7.43131e-11
8.0843e-12
8.35149e-11
5.2692e-11
-6.02487e-11
-7.18846e-12
2.5616e-11
-48.0734
44.3154
29.9716
-36.2944
2.98806e-11
-4.73673e-11
1.37023e-11
-0.000152498
0.0021143
4.65664e-05
-1.53867e-05
1.38532e-11
-6.31921e-12
-2.08597e-11
1.00127e-08
-9.92344e-10
-1.26862e-09
7.28613e-11
4.79166
-8.47132
0.512414
-2.72017e-11
6.61549e-12
1.70393e-11
-1.28142e-11
1.27883e-05
-1.89516e-06
3.78948e-06
-4.63791e-06
5.16782e-12
7.02191e-11
-2.78582e-11
7.46519e-11
3.43449e-11
-6.21196e-11
7.39866e-11
1.40896e-10
-5.36805e-11
-4.01858e-11
5.11112e-11
-1.32596e-10
9.79382e-12
1.13721e-12
-6.79101e-11
-3.13985e-11
2.53409e-11
-3.46199e-11
8.07862e-11
-2.05847e-11
5.19572e-11
-1.60215e-10
2.74733e-11
1.25503e-11
-7.11173e-11
1.46594e-10
1.45045e-10
1.02145e-08
-5.29546e-11
1.59194e-08
0.000258102
-1.30612e-05
-4.23319e-05
-3.39903e-05
-1.87193e-10
5.32709e-12
2.52202e-11
-8.88326e-11
2.80389e-11
1.5741e-11
8.78583e-11
-5.41756e-12
1.47719e-11
-8.03204e-11
1.12646e-10
7.51004e-11
1.18738e-11
7.4231e-11
6.7907e-11
3.39664e-11
3.00571e-11
2.33875e-11
2.55847e-11
-1.08311e-10
1.72579e-10
1.8677
-1.40232
2.92117
-3.37397
0.00323812
0.0567454
-0.0576663
0.197166
-0.0146206
0.0613276
0.0184306
-0.0175135
6.95548e-12
5.337e-11
1.92287e-11
-1.27238e-11
1.10983
-0.496324
0.518595
-0.308143
-7.48639e-11
-7.36426e-11
2.85638e-11
-1.01009e-10
-86.0482
-25.1362
78.7912
32.7511
-4.08168
2.51543
-32.4885
34.1217
-6.43505e-11
-6.61188e-11
-4.98244e-11
5.19642e-12
14.9244
-5.83634
7.72799
-3.87701
-1.16625
6.72979
13.7833
-32.2112
-0.732037
19.0032
6.01224e-11
-3.16854e-11
1.64955e-11
-3.09102e-11
2.56598e-11
-5.63522e-11
-3.46686e-11
-1.02268e-10
4.93508e-11
2.8382e-11
-3.80492e-11
-4.35934e-11
178.898
-197.413
-82.2988
98.3214
5.80114e-13
-1.21796e-11
-1.04575e-10
9.13305e-12
2.28072e-11
2.54814e-11
-10.1885
6.2722
10.3594
-6.48043
11.2068
-15.9841
11.7531
-4.98056
8.66534
-3.60798e-11
3.22496e-11
5.29329e-11
3.09834e-11
-1.65544e-10
-0.000635311
0.00223883
-0.000167751
4.94017e-05
-6.70342e-11
-6.20886e-11
1.23638e-10
-4.74272e-11
11.8955
-57.8867
-9.13481e-11
-6.16703e-11
-5.80792e-11
-1.05387e-11
-3.10801e-11
5.47368e-11
-3.5975e-11
-1.11517e-10
-7.67252e-11
1.60058e-10
-2.47458e-11
-3.26094e-11
-1.65603e-12
6.34448e-11
-6.23582e-12
2.10566e-11
-1.11762e-10
-3.53431e-12
2.53521e-11
4.18338e-12
-1.12434e-10
-3.62905e-11
5.16727e-11
-1.09688e-10
-5.53133e-11
2.41156e-11
-9.16146e-11
2.04701e-05
-3.47686e-06
1.21353e-05
-3.99353e-06
-2.01532e-11
9.74266e-12
8.92736e-11
-7.97981e-11
-1.886e-11
-4.86292e-11
-8.09891e-11
4.40718e-11
-6.90743e-11
5.09731e-11
7.63578e-11
1.33216e-10
3.90076e-11
-1.24171e-10
2.59717e-11
4.19098e-11
1.11641e-10
5.13291e-11
-9.77668e-11
-8.0249e-11
1.56782e-10
-5.49955e-11
-5.26401e-12
1.04622e-10
7.17532e-11
-8.07341e-12
0.0326932
-0.0118691
-0.0121518
-1.84581
-1.91637
-2.74078
6.50726
1.92793e-11
4.51118e-11
1.18081e-10
5.9125e-11
7.7858e-06
-5.33188e-06
7.67648e-06
1.60377e-05
0.00323412
345.873
34.0845
50.5751
-442.398
-4.41932e-11
3.28832e-11
4.84686e-11
1.06095e-10
2.31434e-11
7.46761e-11
2.14098e-11
-2.35376e-11
-2.33617e-11
-4.32008e-11
3.34576e-11
1.91692e-11
-0.0247353
-0.0157032
0.302345
1.20842e-11
8.31948e-11
-6.18436e-11
1.41155e-11
-0.0367547
-1.61995
3.45406
1.9715
2.15626e-11
1.46184e-10
1.08967e-10
7.00944e-11
0.443546
-0.122845
0.00657676
0.0935697
1.39439e-11
-3.39632e-13
-3.02882e-11
-5.86133e-12
-1.66568e-10
-2.04058e-10
1.45888e-10
6.9469e-11
-5.8906e-11
-1.73826e-10
8.1013e-11
2.42322e-07
-7.17753e-08
-1.34346e-08
-2.59877e-10
-3.46073e-11
2.81991e-11
5.02252e-11
2.20668e-10
-1.15652e-10
5.96599e-11
5.24973e-11
-3.63524e-14
1.78492e-11
-7.8092e-11
1.03821e-10
-2.46437e-11
2.17453e-10
1.17974e-10
-2.04218e-10
1.87582e-10
2.15664e-06
-3.52489e-07
-8.90034e-08
2.71797e-07
-0.965348
-0.482527
0.903597
3.20389
-17.3685
23.8939
-11.8066
6.40454
-9.01579e-11
1.92516e-11
4.63989e-11
-1.96916e-11
2.75355e-11
-6.41919e-11
-6.37219e-11
1.18102e-11
5.13547e-11
6.45638e-12
-6.87387e-11
-9.8012e-11
1.46311e-11
-1.07971e-10
-7.63486e-13
-7.24006e-12
5.23417e-11
-1.56371e-11
1.13051e-11
8.59423e-11
2.71724e-11
4.1188e-11
-1.15826e-10
-24.4491
-12.3166
-6.39265
76.1626
16.5436
-15.6621
10.6193
-11.5795
11.9808
24.8289
-15.2309
3.84452e-11
1.30271e-11
-4.62606e-11
4.21772e-11
-7.26056e-11
8.00577e-09
2.60996e-08
-2.47619e-08
9.96269e-08
-9.16124e-09
3.07433e-08
5.30439e-08
0.0885712
-0.0237279
-0.0446035
2.00854e-10
6.11779e-11
-6.13504e-11
-1.62129e-10
0.0971455
0.126257
0.02728
5.44268e-11
-1.1151e-10
2.10635e-11
1.5428e-10
-8.81661e-11
4.71704e-11
-1.59694e-10
-3.37056e-11
-0.000643017
0.010578
-0.00138419
47.7439
136.606
-71.7938
-125.804
9.70557e-11
-8.7103e-12
-3.37978e-11
6.29527e-13
-1.59273e-11
3.0503e-11
-1.47465e-10
-1.13358e-10
2.47798e-11
-5.05408e-11
7.5877e-11
3.91608e-11
-2.10071e-10
-10.4642
-7.21913
-11.0706
30.7129
5.06412e-11
-5.44599e-11
1.58246e-11
-3.04153e-11
-5.74319e-11
-7.91419e-11
6.43376e-11
1.05767e-10
-22.0336
58.9711
-4.77595e-08
7.22194e-08
-5.12836e-09
1.07217e-07
-7.45527
-15.8835
14.6337
1.38707e-10
1.06598e-10
-6.92892e-11
7.30218e-11
3.4402
-1.05504
-0.423668
-0.0134533
0.0370289
-0.0138549
6.48933e-11
4.29221e-12
-6.77542e-12
9.68903e-11
-17.0858
15.8545
0.58286
1.06212
1.58794e-11
1.02661e-11
4.28921e-11
-1.19924e-10
4.48202
-2.45603
-1.19611
2.43443
-1.31343e-11
7.80496e-11
6.68362e-11
-0.0604077
0.287369
-0.0343981
0.00111681
0.000156854
-0.000333008
-2.30506e-05
0.00540626
0.00134235
1.43294e-10
-8.36216e-11
-7.05178e-11
1.36462e-10
-1.09557e-10
-6.11011e-11
4.03436e-11
1.61299e-12
5.00834e-11
1.25501e-11
-3.40629e-11
-8.81807e-11
3.78102e-11
-1.20179e-10
3.57343e-11
4.70549e-11
-2.36621e-08
-3.03054e-08
-4.32802e-08
4.89824e-07
2.63708e-10
6.72781e-11
-1.1492e-10
-3.50136e-06
2.89208e-05
-4.60605e-06
2.01918e-06
6.38853e-11
-5.196e-11
-1.02633e-10
-1.55495e-11
3.22699e-11
-4.02706e-11
-1.49987e-11
-21.2497
60.3123
8.36883
-1.82792e-11
-8.03897e-11
-1.27365e-11
-5.65825e-11
-0.311872
-1.96642
2.3305
4.19187
-0.123877
0.447806
0.0738915
-0.0455065
-0.0268143
-19.3884
3.06003
11.5337
1.34476
4.52093
-2.28688
-2.23177
2.06085e-11
5.60054e-11
-1.79375e-10
-1.23196e-10
-0.865529
2.99835
-0.058061
-0.410384
-18.3509
17.2402
-24.9654
18.1709
3.30331
-3.70235
-9.45157
9.8463
0.796459
118.022
-34.6186
-77.0877
5.98933e-05
-3.06734e-05
0.000300865
-4.7389e-05
1.63623
-2.01916
-2.08373
7.7437
-8.53586e-11
4.68662e-11
1.03947e-10
0.000211755
-0.00025113
0.00131613
-0.000222715
-4.89759
3.92649
4.67023
-5.58482e-09
1.38664e-08
-1.08116e-10
1.56088e-10
3.9837e-11
1.3621e-11
-11.344
-4.20388
-2.75117e-10
4.4899e-09
-9.88341e-10
4.76792e-11
2.03176
-0.333616
0.76478
-0.915754
2.07717
-0.095005
-0.339897
9.0058
-2.53268
-0.699568
0.143653
0.528049
23.9348
-27.6899
15.3354
22.8143
169.8
93.0448
-539.603
-24.6126
47.8763
-22.6001
16.3154
-0.000953991
0.0128026
-0.00177864
1.09869e-10
4.8557e-12
-6.75244e-13
2.20419e-09
-2.27952e-09
-7.79678e-10
7.1367e-09
84.0864
-104.231
1.71146e-11
-4.50707e-11
-8.22009e-11
4.05726e-07
-2.00752e-07
2.27477e-06
-7.34992e-07
7.22444e-11
5.27896e-11
-3.30546e-11
-1.07687e-11
8.59926
23.9504
54.7929
-112.632
2.99884e-11
2.21442e-11
1.59885e-11
4.4382e-11
0.89458
3.2358
-0.6302
-1.0746
-4.12845e-11
-9.68225e-12
-1.25403e-10
-3.10852e-10
-4.78864e-11
-1.08204e-10
-2.92251e-11
2.74977e-11
0.000381327
8.53413e-05
-9.98679e-05
1.18712e-11
-3.12267e-11
-1.9171e-11
5.77922e-12
-1.40206e-10
7.91999e-11
8.37298e-11
0.0742762
-1.54293
0.177371
3.85202
119.956
-118.598
-39.1517
-61.6096
-127.33
4.76963
2.16122
5.89246e-11
-1.7789e-11
-8.48744e-11
-1.30313e-11
-1.51769e-12
-6.86701e-11
-9.52301e-11
-56.6639
45.0361
-84.0843
104.823
-0.0244266
0.07786
0.131474
-0.015412
-4.03094e-11
-1.01146e-10
1.71482e-10
3.35655e-11
6.35266e-11
8.19415e-12
2.01056e-11
0.354448
1.27239
-0.472695
-0.000935863
-4.21952e-12
4.18836e-11
-1.90995e-10
-7.85203e-11
2.36213e-11
4.99734e-12
-3.28094e-11
-6.95013e-11
-5.48873e-11
-4.3527e-11
-1.37354e-10
2.5296e-11
-37.9975
-10.5438
8.72747
41.2258
7.9414e-11
-2.9694e-11
-7.24673e-11
-0.000164218
0.000667081
-8.59124e-05
0.00110156
41.1364
-40.283
42.8115
-16.3911
-10.11
-3.93581
30.457
4.05811e-11
2.32824e-11
-5.44556e-11
-0.000337924
0.00172096
-0.000123028
-0.000286439
0.443287
-1.11584
-1.18727
4.31454
-4.12104e-11
3.22241e-11
9.54773e-11
1.39951e-10
-52.5235
-38.2379
36.8719
55.5417
-0.239324
0.493156
0.014551
1.17319e-11
-1.25413e-11
-2.50282e-11
-5.3264e-12
3.77377e-11
-9.01612e-12
2.18129e-11
-6.94045e-11
-9.8991e-11
-7.62622e-11
4.33002e-11
-5.98755e-11
-4.63019e-11
-6.80077e-11
9.51548e-11
1.02458e-10
1.58794e-11
2.41007e-11
61.0533
16.4893
-21.4755
-68.361
-8.3427e-08
-2.09075e-07
-1.38198e-07
1.53539e-06
6.94106e-11
1.97477e-11
-3.08598e-08
3.34759e-06
-4.38976e-07
17.2616
11.6979
2.98893
-31.849
-4.99075e-11
5.83595e-13
6.40503e-12
-1.15264e-10
1.5444e-11
4.95622e-11
-7.65608e-11
-1.36134e-11
-3.83226e-11
4.59214e-11
7.81228e-11
5.76984e-11
-2.97647e-11
1.03243e-11
2.6179
-0.267687
-0.426471
-0.29685
-4.13821e-11
-1.31191e-11
2.06048e-11
-5.89083e-11
-1.5261e-11
6.31455e-12
-5.63182e-11
-6.3522e-11
-5.72579e-11
-7.33535e-12
1.96232e-11
3.12061e-11
5.00157e-11
-1.98862e-12
-7.75397e-11
-1.00605e-10
1.7063e-10
-1.99071e-11
9.80597e-12
-1.36741e-10
3.18662e-11
1.22006e-11
2.15228e-11
-0.221875
0.284138
3.70757
-1.35298
56.7264
-137.542
-149.94
237.676
5.19573e-11
3.19578e-11
-4.63759e-12
1.06168e-11
-1.09424e-10
7.58816e-11
2.38691e-10
-3.07413e-12
2.14709e-11
-33.5759
-14.5297
30.0929
9.48152
5.81492e-11
6.10241e-11
1.57e-11
4.8043e-11
0.00515233
-0.000408609
-0.000223629
-0.00123575
10.4868
7.74344
-41.7462
27.5191
1.20247e-10
5.64341e-11
-9.73999e-12
-88.005
-22.2834
61.1388
7.19597
-0.00084138
0.00339316
0.00898879
9.68813e-11
-2.28731e-11
3.01975e-11
8.84115e-11
-2.92417e-11
-4.00905e-11
-5.07125e-12
-1.08418e-10
-5.53185e-12
-8.10675
34.1949
-3.93314
-19.9338
6.98903e-06
-2.45731e-06
8.71894e-05
-1.26509e-05
3.90775e-09
-1.931e-10
1.64339e-09
-1.08438e-09
19.2483
-3.04581
-1.91247
-14.3589
-73.2866
9.73019
35.9498
12.3072
-1.52213e-11
5.20023e-13
-9.73203e-11
6.10942e-05
-3.73087e-05
5.41397e-06
0.000153723
-6.93933e-12
-1.3543e-10
-4.81307e-11
6.09544e-12
-9.31405e-12
7.57019e-11
1.70512e-10
3.15315e-11
3.11252e-11
7.19622e-12
-1.54794e-11
4.7623
12.6979
-13.7045
-3.80387
-0.0141315
0.0633422
-5.9853e-09
6.10196e-09
7.86125e-08
-1.66427e-08
-2.9409e-11
1.61804e-11
-3.55103e-11
1.05791e-06
-2.90491e-05
-2.74515e-05
0.000169625
-0.0255783
6.52851e-07
3.99497e-06
1.94615e-06
-6.69388e-07
-7.73493e-11
9.23105e-11
-4.17725e-11
-8.49823e-11
-0.00465378
-0.00807115
4.02786
5.89831
-3.66814
-2.30219
-21.269
15.4789
0.9129
4.85642
23.0457
-37.124
-51.3537
106.594
7.28305
-113.582
24.5481
-1.62446
-25.7408
6.0227
-6.44454
-1.10051
1.5315
1.9687
-9.93129
7.76598
0.175495
-15.4935
22.2963
-23.1698
4.02217e-08
4.93734e-07
-1.00998e-07
-0.858915
1.63451
0.831436
1.8464e-10
1.72062e-10
-9.17185e-11
-6.99835e-11
-0.461955
0.808237
-0.676142
-1.0922e-11
-2.31796e-11
-7.67617e-12
-90.8196
-45.7042
134.312
7.26442e-11
8.28041e-11
-4.43719e-11
-24.7018
16.3855
20.2837
-11.3407
-34.4361
-0.840124
1.17093
1.51187e-10
-5.30672e-12
-4.78291e-11
-1.11598e-11
1.02206e-10
3.35896e-11
-6.83564e-11
9.9373e-11
-4.46146
89.4686
-94.476
-1.2057e-11
6.71459e-11
-4.32255e-11
-2.71766e-11
-42.2613
38.193
-374.231
114.895
310.606
-43.4214
23.2338
32.2405
-0.099026
-36.5877
1.97478
2.85349
-0.074856
-4.74596
-43.5934
0.57982
3.73407
32.2211
-7.24691
-1.91338
11.3158
-2.08265
-3.35444e-10
7.34034e-09
-1.10022e-09
1.20778e-09
1.18941e-10
7.31119e-11
3.66024e-11
1.0838e-11
4.29186
-3.68819
-22.8643
40.7131
7.71213e-11
4.29107e-11
7.21745e-12
-4.17068
10.5162
0.348553
-6.71909
-2.7109e-10
-1.30251e-10
-8.32179e-12
-8.05107e-11
-2.08362e-11
1.0461e-11
-5.60396e-11
4.51631e-11
0.000686441
-5.83032e-05
4.20381e-06
-5.28313e-05
11.2236
-139.925
135.084
-5.72754e-11
1.34446e-10
5.12286e-11
4.58466e-05
-3.61394e-06
-1.86656e-06
-3.92657e-06
0.732229
1.43332
5.74325e-11
-1.57492e-11
-4.45592e-11
-3.73839e-11
5.24003e-11
-2.8221e-11
-1.19786e-11
66.8058
144.123
-108.002
-89.273
-13.1795
295.278
-147.107
-123.775
4.86245e-11
9.50262e-12
1.27217e-10
-2.92517e-11
1.11746e-12
4.98535e-11
2.31485e-11
5.21122e-11
-14.5647
-28.8227
-4.31154
46.8979
0.0561794
-0.0176159
0.0131501
138.357
-72.3526
-5.49106e-11
-1.24305e-11
7.63417e-11
-2.92735
-0.467615
1.49664
-8.96673e-11
8.69181e-11
-5.41044e-11
-3.81133e-11
7.63175e-11
2.25863e-11
1.09495e-10
2.14848e-11
-2.5983
-31.36
-28.5841
62.8782
3.96649e-11
-8.34215e-12
-3.50675e-11
-0.00166501
-0.000560475
0.0150117
-48.084
-101.616
153.161
-1.39972e-11
7.58962e-12
4.74884e-11
-9.74942e-12
1.12092e-11
-45.8423
20.0654
6.84021
18.0479
0.000178613
0.000711249
-0.000230853
-0.0985189
0.758935
-0.61553
1.13528
-15.3084
-29.8607
179.881
-133.459
1.12617e-10
1.62838e-10
-1.69988e-10
2.06729e-10
1.66308e-12
1.16681e-11
-6.10217e-11
-1.42073e-11
-2.42319e-11
-2.66779e-11
-6.74586e-11
-1.52962e-13
5.26539
7.55307
-11.6023
-0.23777
-1.77313e-10
-1.03475e-10
9.28208e-11
-4.80742e-11
-6.5982e-11
8.14409e-11
-6.36646e-11
9.24304e-11
-1.78485e-11
-6.06843e-06
5.16529e-05
-3.3051e-07
-4.58764e-06
0.000112285
-4.17185e-05
0.000231012
-5.7819e-05
-7.01137
4.12358
6.74441e-11
-1.10197e-10
-9.87303e-12
-1.6512e-10
1.45227e-10
-5.66056e-11
1.9513e-11
5.16081e-11
1.3764e-12
0.0543565
-0.0698391
-0.00213288
95.9658
-42.2883
-55.6903
9.55466e-11
-4.58107e-11
4.54862e-11
-4.04448e-11
-18.0239
49.2054
-14.7399
21.3007
-118.429
98.4319
-4.55616
3.09642
4.03711e-11
-6.76674e-11
6.43337e-12
-7.24394e-11
-1.04219e-10
-8.70755e-11
-3.28563e-12
-118.459
134.18
52.6524
-66.8626
-88.6354
-13.4802
70.8066
22.1772
0.184383
-0.0324524
-0.0335428
-0.00557389
23.9108
-234.527
231.523
-36.5342
-7.98209e-11
1.15369e-10
6.19059e-11
-406.562
348.345
27.1238
17.4664
20.0725
-14.1116
-0.325567
-5.12401
458.732
-452.096
-268.809
259.331
6.6068e-11
1.03871e-10
1.83871e-10
-3.13646e-11
1.30688e-11
-1.0197e-12
-4.8429e-11
3.24598e-11
-1.79102e-12
-2.4393e-11
7.24857e-11
9.10313e-11
1.83183e-11
-4.48215e-12
-1.2849e-10
1.31707e-10
5.9472e-11
-5.7012e-11
1.19794e-11
225.069
-219.37
-16.8742
0.29596
-4.48928e-11
7.11119e-11
5.41907e-09
7.21678e-07
-9.78983e-08
-2.96136e-11
-7.51263e-11
1.32467e-10
9.27332e-11
3.11186e-06
-1.66551e-06
7.353e-05
-1.0822e-05
-6.97817e-11
-9.86734e-12
1.78118e-11
-1.26531e-10
-0.00919926
-4.00091e-10
1.81996e-09
2.18082e-10
-7.05011e-11
5.5125
-52.1791
80.9792
-18.8606
-128.911
128.438
8.09889
-2.06106e-11
1.70767e-10
8.52427e-11
21.3682
6.76043
-8.1039
9.06934e-11
1.29179e-10
-1.46562e-10
5.09867e-11
60.3232
-52.6344
-283.205
279.326
-161.393
148.719
-24.1196
-8.05432
9.97766
-1.8825
-0.000424692
0.00371694
-0.000494585
-4.71863e-05
-35.7337
-139.413
-2.28123e-11
4.14133e-11
-4.22867e-11
-3.09176e-11
2.49449e-11
1.01663e-10
3.5425e-11
-7.3448e-11
0.0293721
0.00258254
-0.00870509
-0.00305295
-103.679
-30.9954
83.5101
55.8838
2.56296e-11
1.54869e-11
-2.68742e-11
7.13607e-11
7.2294e-11
8.43996e-11
-1.56819e-08
-6.42352e-09
5.31061e-08
3.35372e-08
-7.08442e-11
-1.9274e-11
-216.979
0.395912
217.805
-2.77039e-11
-4.73884e-11
1.4343e-10
2.41025e-11
2.70612e-11
7.86651e-11
-2.54433e-11
-8.64417e-12
-1.06883e-10
8.62988e-11
-1.0968e-10
-7.81436e-11
2.40183e-11
-1.09753e-10
7.83484e-11
-12.9611
-26.1116
38.1056
-1.08922e-10
-1.34128e-10
-9.60737e-12
-2.43144e-11
-2.50852e-11
5.43793e-11
-1.00047e-10
-4.23159e-11
-118.46
-266.496
197.005
194.661
274.986
-81.4641
-76.7983
-111.502
-7.63942
-22.6266
1.018
39.1126
2.3922e-11
-3.96155e-11
-2.08826e-10
-8.03542e-11
-4.51846e-11
-5.64387e-12
-2.8865e-11
2.25418e-11
-3.32724e-11
-3.32699e-11
8.78017e-11
-0.00128979
0.000410144
0.00392307
-2.93695e-11
-3.29208e-11
2.22186e-11
1.77317e-11
7.64753e-12
-1.42816e-11
-2.55373e-11
-2.79798e-11
-4.5451e-12
-1.89733e-11
-2.49836e-11
4.26314e-11
-4.99184e-12
5.98353e-11
-2.34861e-11
-1.98908e-11
-8.97316e-11
6.41685e-11
2.01949e-11
-3.96324
-19.6517
43.6424
-19.9996
-59.4683
18.0007
61.2865
-18.9632
-4.20912e-12
-2.03868e-11
3.04331e-11
-1.64894e-11
-3.66616e-11
3.24812e-11
1.27059e-10
13.2192
-11.8471
-15.1093
14.0015
-5.88503
82.0404
-16.0189
25.685
8.00269
-14.5463
-17.9281
9.04778e-05
-5.53191e-06
-1.13912e-05
-3.47388e-11
-4.10968e-12
4.09351e-11
3.09306e-07
-2.29485e-07
-6.94043e-07
2.26416e-06
0.00952882
-0.00408546
0.023772
-0.00663868
-14.1358
-18.4256
39.6799
-17.6502
25.8645
26.4151
-11.4238
-51.4921
22.2055
-12.7357
-1.30827e-10
-2.13048e-10
-4.59972e-11
-5.16486e-11
-286.215
119.668
117.869
47.9586
-3.32486e-11
3.90244e-11
-4.6376e-11
-9.99615e-11
-6.22956e-11
-7.98468e-12
1.03424e-11
7.62862e-11
-69.9556
162.092
-87.8995
42.2019
-41.3671
-51.4904
51.557
4.11355
-0.867558
-1.90594
-1.37941
4.17743
-11.4599
-1.63479
9.1306
5.95466e-11
-3.39959e-11
4.88908e-11
-8.41518e-12
-5.3025e-11
-2.92299e-11
6.20869e-11
-1.75128e-10
7.89495e-11
-5.63058e-11
1.42078e-11
4.37479e-11
-5.62141e-11
8.26136e-12
-4.84372e-11
8.58165e-12
21.7129
-63.3084
77.7772
-35.627
-4.84601
-2.16551
6.91797
-49.1245
-20.743
-45.1243
64.0493
-132.499
-30.1526
100.298
-21.9928
9.89021
-9.60309
12.7101
-1.00646
-7.29783
-0.951971
9.60119
10.6975
-95.3855
37.5848
8.98803e-11
3.39341e-11
-2.19721e-11
2.25225e-11
129.83
0.836964
-216.481
87.6203
0.0695672
0.0193059
-0.0110288
0.0123486
0.00054256
-0.00794251
-0.00574079
-16.6849
-12.1002
41.4824
-5.70994
0.878295
-5.19902e-11
-1.44246e-11
0.00166641
-0.0028146
0.0208281
7.16798e-11
1.66779e-11
3.0464e-11
9.06451e-10
-2.06803e-10
1.0191e-09
0.0180289
-0.00143561
0.107754
-2.93963e-11
4.02498e-11
8.84358e-11
6.68226
1.63042
3.66842e-11
-4.9737e-12
-1.74216e-12
6.61775e-11
1.17471e-10
1.5796e-10
-5.45403e-11
3.3485e-11
-0.000304683
0.00145557
0.0017105
1.81288e-10
-1.26581e-11
1.07825e-10
-0.000123969
0.000540149
-0.0002557
0.00137202
4.73654e-11
5.79987e-11
-2.47457e-12
-3.06312e-06
-1.74876e-06
1.24812e-05
-6.86217e-11
-9.35171e-11
9.41261e-11
-7.57898e-14
0.00132867
-0.000321484
0.000102629
0.000157714
-1.10149
0.786659
2.67805
0.843523
2.93731
-1.74952
0.634837
-4.53013e-11
1.15961e-10
-2.60727e-11
-2.72863e-11
1.25449
-0.230489
-0.235285
-0.0182951
1.83758
-0.893267
-2.62398
4.61749
-8.52747e-11
2.4159e-08
-2.91607e-09
-7.33903e-10
0.0580227
-0.0201277
-0.0132727
0.000884027
8.64282e-12
-3.16455e-11
-9.71052e-11
-68.4012
12.4881
34.0142
4.40398
-0.00209911
-0.00244166
1.81303e-06
-4.20144e-07
-4.24202e-08
-1.49441e-07
-7.06865e-07
-0.000146707
0.000731623
-1.52383e-05
-0.154058
1.24856
-0.222278
-0.102667
36.8527
-44.3529
-24.5475
49.135
1.05188e-11
-8.15057e-11
2.31949e-11
-0.000674466
0.00459104
6.02603e-11
6.56723e-11
5.19092e-11
-5.91621e-12
4.6344e-12
9.58866e-11
2.06436e-11
-2.28917e-11
-3.69398e-11
-4.12775e-11
1.20432e-11
1.15992e-11
0.000721011
-0.0038704
-0.00057594
0.0146885
15.6337
-7.15409
-6.07325
9.57508e-12
4.36338e-11
-7.77388e-11
-0.0535441
-0.0428235
0.203585
0.118849
0.324212
0.0274409
0.0153098
-0.0127913
-0.00725865
208.149
-19.3326
31.5185
-216.751
5.17277e-11
-3.17536e-11
1.02531e-10
7.20922e-11
0.000138986
0.000385278
-0.000108551
3.18116e-09
-8.43732e-10
3.64293e-09
-1.25693e-09
-1.30574e-10
-1.53883e-10
-6.15369e-12
2.5554e-12
7.69985e-11
9.45497e-11
-2.45694e-11
-9.71014
1.32182
16.5198
-7.75123
-0.00734764
-0.00758096
-0.00624978
-0.00143865
-0.00794944
0.0294056
-0.040183
-0.18042
0.579837
3.055e-11
-7.41269e-11
3.28436e-11
4.37398e-11