/*--------------------------------*- C++ -*----------------------------------*\
| =========                 |                                                 |
| \\      /  F ield         | OpenFOAM: The Open Source CFD Toolbox           |
|  \\    /   O peration     | Version:  2312                                  |
|   \\  /    A nd           | Website:  www.openfoam.com                      |
|    \\/     M anipulation  |                                                 |
\*---------------------------------------------------------------------------*/
FoamFile
{
    version     2.0;
    format      ascii;
    arch        "LSB;label=32;scalar=64";
    class       volVectorField;
    location    "0.15";
    object      U;
}
// * * * * * * * * * * * * * * * * * * * * * * * * * * * * * * * * * * * * * //

dimensions      [0 1 -1 0 0 0 0];

internalField   nonuniform List<vector> 
32842
(
(-0.0299031 -0.00611445 -0.0162893)
(1.84439 -0.267629 -0.593589)
(5.14252e-13 -6.33842e-13 7.9405e-13)
(-4.57911e-13 -1.09425e-12 6.44947e-13)
(9.0867e-13 -1.1658e-13 6.29349e-13)
(1.71304e-13 -4.67915e-13 -4.00441e-13)
(-22.4831 3.00033 0.299469)
(-5.42828 -22.2678 -1.6609)
(-1.00228e-14 -1.46496e-12 7.93559e-13)
(-6.50052e-13 3.27523e-13 -3.57404e-13)
(6.9198 23.9133 -1.47957)
(10.594 -22.5916 -0.862578)
(-9.29234e-12 2.58734e-10 -4.0674e-10)
(-9.58298e-13 8.89051e-14 -7.72048e-13)
(5.57479e-13 4.23695e-13 1.6867e-12)
(0.0566067 -1.45386 0.0522246)
(-1.45347e-12 1.52567e-12 1.71335e-13)
(-1.98655e-12 8.90154e-13 -1.17446e-12)
(-0.212675 -0.099804 -0.096962)
(-9.00178e-13 2.82786e-13 -1.00812e-12)
(-6.1568e-13 5.97158e-13 9.44619e-14)
(-4.44004e-13 -1.62771e-12 -1.54909e-12)
(-1.44659e-12 4.89694e-13 1.15052e-12)
(-6.92391e-13 5.89077e-13 -2.83472e-13)
(-2.84574e-13 -9.04664e-13 -2.84876e-12)
(-1.27979e-12 1.24581e-12 -2.0994e-12)
(7.49298e-14 -2.7635e-12 1.41492e-13)
(3.16312e-13 2.62856e-14 1.34978e-12)
(35.2349 2.03814 -2.40615)
(2.19522e-08 6.54242e-08 -9.83244e-08)
(30.982 1.21924 -2.47122)
(-5.44621e-13 -1.06233e-12 1.72747e-12)
(4.71282 -19.7704 -5.67651)
(1.08816e-06 -2.80706e-08 -1.73771e-06)
(3.47813 -20.9687 -8.36271)
(3.70798 -16.8471 -3.25122)
(-7.84563e-06 -6.8162e-06 6.43807e-06)
(2.06405e-07 -3.984e-07 -1.09544e-07)
(6.07898e-05 0.000238851 -0.00034835)
(-0.0018265 -0.00209994 -0.000548845)
(-8.73942e-13 5.65273e-13 1.27715e-13)
(3.70508e-13 8.74413e-14 2.03306e-13)
(-5.46234e-13 1.08951e-13 -2.70538e-13)
(5.27064e-13 -7.22626e-13 1.20609e-12)
(0.180166 0.267658 0.272669)
(-3.506e-09 -2.24629e-09 -1.35253e-08)
(-28.7609 0.0754461 -1.48152)
(-0.00204521 0.00307255 0.0053278)
(-1.15885e-12 -1.36439e-12 2.08704e-13)
(-37.4661 -4.19482 2.0879)
(4.79601 -20.2102 0.00415966)
(-8.61396e-13 -8.53774e-13 1.32584e-12)
(-2.08585e-09 -4.29803e-09 -2.09471e-07)
(36.472 1.22415 -0.749163)
(-8.81527e-13 5.6112e-14 -1.56291e-12)
(-1.27859 -1.39992 4.17905)
(2.1262e-12 1.8129e-12 5.15475e-13)
(-1.00214 34.3106 1.51068)
(-8.25005e-13 1.38728e-12 -1.04118e-12)
(-1.10937e-12 4.22503e-13 -6.2915e-13)
(6.02266 -12.8299 -2.15274)
(-0.000332707 -0.00118317 0.000979364)
(1.0604e-12 1.35167e-13 4.00228e-13)
(-2.86804e-13 -1.44111e-12 -3.24553e-14)
(-0.00128889 7.13094e-05 -0.00611007)
(-31.542 1.97094 -1.33626)
(6.75117e-13 5.85868e-13 -3.12586e-13)
(-3.49586e-06 -2.37216e-06 -2.13234e-05)
(1.41447e-12 -8.80893e-13 -6.3231e-13)
(1.5176 0.569844 1.89992)
(1.35687e-13 -6.85596e-13 1.26649e-12)
(-11.2854 4.60949 0.0850573)
(1.42747e-12 -6.08467e-13 -9.00226e-13)
(-6.09293e-13 1.23851e-12 2.39158e-12)
(1.62483e-12 -5.20212e-13 1.6106e-12)
(0.0557846 0.0540541 0.0326462)
(31.1122 1.47932 -1.82469)
(1.39306e-12 7.00329e-13 7.4037e-13)
(1.84553e-13 -1.4784e-13 2.10146e-12)
(-0.604596 -24.6322 3.37834)
(9.35035e-13 -9.75493e-13 6.83305e-13)
(-1.59366e-13 -1.2751e-12 7.70931e-14)
(6.80441e-14 -6.9117e-13 2.55591e-12)
(3.26686e-13 7.10067e-13 -3.23849e-13)
(1.86902e-13 8.97517e-13 1.33109e-12)
(1.05035e-12 1.04667e-12 2.03736e-12)
(-2.39705e-12 1.20212e-12 -5.0391e-13)
(2.5782 1.01131 3.90471)
(0.0692674 -38.9306 -2.69151)
(-1.64397e-12 8.35244e-13 7.11137e-13)
(1.34371e-13 -1.07642e-12 -1.45533e-12)
(-1.9362e-12 8.9412e-13 -2.08713e-12)
(-19.2624 -0.768503 2.76735)
(-2.29489e-12 2.69197e-13 1.99817e-14)
(1.5804e-12 1.31767e-13 4.05285e-13)
(-0.000199687 -0.0006566 0.00022852)
(-1.47101e-12 1.06532e-12 7.15599e-13)
(2.04543e-13 1.53883e-13 1.18753e-12)
(-2.81791e-13 5.38869e-14 4.42042e-13)
(2.7342e-13 1.31868e-12 2.83745e-13)
(-3.7823e-13 -1.89109e-13 7.56206e-13)
(-2.58287e-05 -1.98653e-05 1.55969e-05)
(-2.22135 1.05519 0.532979)
(17.278 -0.327357 0.940655)
(-2.33886e-12 2.06904e-12 -3.01818e-13)
(3.88631e-10 -5.96625e-10 2.74673e-10)
(-2.60866 21.3289 2.39382)
(-1.74658 0.629564 -1.43921)
(0.0161763 0.0108235 0.00153627)
(-0.521881 0.940929 1.30028)
(-3.57326e-14 -7.59096e-13 -1.43591e-12)
(-2.49374e-13 8.73934e-13 -4.85963e-14)
(0.577011 -37.748 -0.380466)
(1.43016e-12 -2.21228e-12 9.94236e-13)
(-2.05578 -0.116975 0.884377)
(-2.4099e-13 7.7775e-13 8.74284e-13)
(1.02485e-12 3.78027e-13 -5.49565e-13)
(3.9767 -2.14631 -12.1678)
(-2.02769 -0.264984 0.0458868)
(-0.00125969 0.00060192 0.00134452)
(-2.21146e-14 1.42263e-12 -2.31121e-12)
(-1.16351e-12 -4.06933e-13 2.20179e-13)
(5.69108 29.6202 -1.44433)
(-2.38005e-14 -2.15415e-12 3.51116e-13)
(-1.04393 -0.538453 1.79645)
(2.01783e-13 1.32394e-12 -6.40486e-13)
(3.59519e-06 -1.57862e-05 9.76342e-06)
(3.06543e-06 -2.93852e-07 -2.26602e-06)
(-0.66535 28.3704 6.28148)
(-1.89594e-12 -9.72576e-13 -1.74489e-12)
(-1.33404e-12 -1.45784e-12 -1.20517e-12)
(-3.14419 -0.677316 1.49244)
(0.58927 -0.393958 -0.220205)
(-0.453172 -0.355628 -0.0404955)
(0.253509 0.0334983 -0.100444)
(-1.27493 0.70837 -1.0136)
(-4.78801 -0.305549 1.82509)
(2.54565 -1.34467 6.72708)
(0.00106206 -0.00414986 0.0029703)
(-0.0983988 -0.387508 0.077201)
(3.84684e-11 2.01699e-12 -6.06275e-11)
(-1.15651e-07 6.83425e-08 -1.17888e-07)
(5.60887e-13 4.71477e-13 1.04722e-12)
(-2.06393 -4.30066 4.12962)
(0.134974 -0.0439128 -0.179025)
(-1.35643e-09 3.81681e-09 -5.65095e-08)
(25.6331 3.04052 12.8979)
(2.41439e-09 -6.14821e-09 -7.10493e-08)
(7.46155e-13 -3.14496e-13 1.21279e-12)
(3.65307e-12 -1.18147e-12 -4.28872e-13)
(-0.471453 -0.997963 2.85826)
(-1.01709 0.514497 2.52196)
(2.43163e-12 2.62935e-13 -2.93738e-13)
(3.87845 32.8501 0.604343)
(-1.05632 1.76123 0.795867)
(-6.7661e-13 3.34717e-13 9.85928e-13)
(-2.17323e-14 -8.50964e-13 9.30624e-13)
(-6.43943e-08 -1.22711e-07 -3.43085e-07)
(-0.121866 0.028182 -0.0978188)
(-1.49271e-13 -3.20257e-14 9.34925e-13)
(-0.0681134 0.0357281 -0.0256906)
(1.4952e-12 9.91491e-13 1.35687e-12)
(2.68032e-14 -4.28477e-13 -5.00468e-13)
(-1.01946e-12 -4.68509e-13 1.52668e-12)
(-0.299957 1.90113 -1.56011)
(1.48624e-08 8.31163e-08 -3.51122e-07)
(-1.45813e-12 -1.24798e-12 2.98145e-12)
(-3.27361e-09 -8.75659e-10 -5.89719e-09)
(0.00114997 0.000268772 0.00100516)
(35.1479 5.09917 2.02092)
(1.30991 0.98082 6.56432)
(0.00786933 -0.0031188 -0.0089252)
(-6.85854 -1.50492 12.1437)
(-4.33246e-13 -7.91317e-13 -3.7397e-13)
(7.80111e-13 6.95954e-13 -1.66378e-12)
(-6.83351 7.73711 15.8544)
(6.31011e-09 1.63677e-09 -2.62911e-09)
(-1.16023 -0.898642 1.55784)
(-3.27115e-13 3.28433e-14 -8.93791e-13)
(-3.96243e-13 5.56705e-13 -1.97965e-12)
(-7.80376e-05 -7.85993e-05 9.23254e-05)
(-1.32233e-12 1.23561e-13 -2.44718e-12)
(6.21659e-13 -8.67423e-13 -8.82716e-13)
(2.58888e-13 -8.32612e-13 3.49774e-13)
(6.63193e-13 2.29205e-13 9.27175e-13)
(9.23389e-13 1.40272e-12 -1.84525e-12)
(0.0160353 0.0260496 0.0547104)
(-8.53571e-13 8.35609e-13 2.7617e-13)
(0.0051173 -0.00014278 -0.000393777)
(-1.06338e-11 -1.06972e-11 -2.85055e-11)
(-1.7431e-12 -2.22727e-12 -3.0301e-12)
(1.36271 0.960075 1.01394)
(-2.581e-13 -1.10823e-12 -1.81434e-12)
(-6.55055e-13 7.09463e-13 -6.42336e-13)
(1.70348e-12 3.12374e-13 3.12095e-13)
(-7.28124e-06 -4.22423e-05 -8.30249e-06)
(-1.8432e-08 3.63839e-08 6.0603e-08)
(3.25493e-06 -3.73839e-06 -7.25836e-06)
(1.19403e-12 7.63863e-14 -1.79987e-12)
(4.87834e-14 -2.21895e-12 -3.83215e-13)
(-0.000305622 4.51399e-05 0.000149985)
(-7.63339e-07 -1.42152e-07 -1.36995e-05)
(-0.891361 -0.499304 3.61632)
(-34.7209 1.04272 -1.21769)
(-0.857396 34.6352 -1.45679)
(-1.4639 -1.19806 -0.0857858)
(-0.00267433 0.00339737 0.0016336)
(1.30769e-12 -8.04798e-13 1.82557e-12)
(9.19408e-13 -3.70565e-13 3.07513e-13)
(-0.00155318 -0.00209608 -0.00142584)
(-0.0315534 -0.0524814 -0.0490825)
(-0.661246 -1.06616 1.14926)
(1.59585 9.68463 16.2015)
(1.44006 7.86414 15.63)
(-1.08828e-12 1.27665e-12 -2.6935e-13)
(-5.89813e-14 -5.16518e-13 4.27567e-13)
(-0.000279319 -0.00108235 -2.44546e-05)
(-0.00112767 -0.000670938 -0.000465991)
(-0.0014009 -0.00849153 -0.00770977)
(0.0756987 -1.9166 0.650385)
(-4.61292 -5.59719 -6.61272)
(2.33698e-13 -7.45083e-13 -1.57036e-12)
(-4.37271e-13 3.28397e-13 -5.9339e-13)
(-0.00306038 -0.0138585 -0.011999)
(0.0134132 0.108554 -0.0166874)
(-0.134337 -0.504272 -0.539422)
(-1.09439e-12 -2.20468e-13 2.0338e-12)
(-1.24933e-12 1.76612e-12 -5.78836e-13)
(0.0506375 -0.0461325 -0.0340858)
(0.717055 -35.957 0.477621)
(7.13202e-13 -1.66104e-12 4.61086e-13)
(1.20324e-12 -8.00183e-13 -3.38271e-13)
(2.11859e-05 -2.92077e-06 -1.96901e-05)
(6.31221e-13 -5.56471e-13 1.14145e-12)
(-5.16957 -21.2497 19.151)
(1.702e-12 -3.13005e-13 -6.93439e-13)
(5.03047e-13 -8.95526e-13 -1.22482e-12)
(1.00998 3.91931 3.88106)
(-0.000124351 -0.000207476 4.79703e-05)
(2.43236e-13 -3.86391e-13 -1.49916e-12)
(2.16631 32.6691 -0.709877)
(-1.84181e-14 6.88444e-14 -4.57834e-12)
(-0.002874 -0.00338836 -0.00278596)
(33.2644 0.653393 0.119701)
(0.0359782 0.018942 0.0314595)
(2.57439e-06 1.14652e-05 2.35984e-05)
(-4.749e-14 6.5493e-13 3.25911e-13)
(-2.05718e-13 1.06382e-13 -7.43358e-13)
(-4.97905e-13 -1.30928e-12 -7.59345e-13)
(3.14429e-14 -8.42086e-13 8.3514e-13)
(5.52543e-13 2.12855e-13 4.12912e-13)
(3.78266e-13 -4.23717e-13 3.76305e-13)
(0.0352298 1.56679 -1.2369)
(7.33215e-13 -3.0528e-13 -1.14714e-12)
(5.86065e-06 3.53803e-06 2.5135e-06)
(7.89616e-13 -6.30593e-13 4.62979e-13)
(-3.1815e-13 6.32813e-12 -2.80458e-11)
(2.0951 5.57597 14.2775)
(9.43833e-13 -3.75829e-14 -2.65519e-14)
(6.6477e-08 -5.68338e-08 -1.38248e-07)
(-3.54816e-13 4.70456e-13 6.18768e-13)
(-1.6783e-12 -3.97874e-13 -1.3694e-12)
(3.24475e-13 -3.05891e-13 -1.93635e-12)
(-4.24065e-13 -6.4163e-15 -5.05611e-13)
(1.99944e-12 -1.47196e-12 8.85114e-14)
(-1.10703e-12 -3.5154e-13 1.86016e-12)
(1.63663e-12 -8.67685e-13 -5.98985e-13)
(1.11081e-11 -1.0624e-10 -8.66799e-11)
(5.37583e-07 -7.36405e-07 6.59109e-07)
(-1.81716e-13 1.0514e-12 -1.34918e-12)
(-1.38704e-12 -8.37221e-13 1.25315e-12)
(-3.42486e-12 4.62473e-13 -1.00712e-12)
(8.60676e-13 4.7842e-13 -4.94005e-13)
(1.11349e-12 2.96509e-13 4.49908e-13)
(1.16833e-12 -1.28952e-12 -4.97449e-13)
(0.790528 -1.45375 10.6187)
(-0.000840442 -0.000593356 -0.000479593)
(0.000602114 -0.00018166 0.000163292)
(2.63854e-13 -3.61481e-13 3.90406e-14)
(0.00658571 0.00499629 -0.00506704)
(-3.7662e-13 -9.30629e-15 -4.13327e-13)
(5.99727 15.2543 -12.9524)
(31.5229 -3.48747 -0.635284)
(-1.65087e-13 8.83482e-13 3.79529e-13)
(-0.0917255 -0.0839224 -0.0459229)
(-0.398029 -0.792923 2.21819)
(8.04781 11.0364 -2.11995)
(-4.13475e-13 -8.57123e-13 1.8187e-12)
(-1.1793e-12 1.27717e-12 -1.22981e-12)
(9.45904e-13 -9.7435e-14 5.55055e-13)
(30.5979 10.8902 5.64791)
(1.18496e-12 -1.05953e-12 1.56153e-15)
(3.16586e-13 -6.89343e-14 -2.30401e-13)
(-1.38386 25.3758 9.6843)
(2.39588 26.9497 0.451073)
(-0.454464 -0.429316 1.92243)
(-4.25533e-13 7.8089e-13 1.92899e-13)
(-1.02112e-12 -2.5104e-12 -3.3537e-13)
(-1.45339e-06 -3.28323e-06 1.96361e-05)
(8.62079e-13 -1.66157e-12 8.81187e-13)
(-41.0229 35.1147 -12.9656)
(-1.16449e-12 3.83518e-13 8.89424e-13)
(-2.17432e-12 2.46905e-13 4.36274e-13)
(-1.75934e-12 -5.55002e-13 -1.52949e-12)
(8.54855e-13 -3.17579e-13 -1.46282e-12)
(-7.88311e-13 -5.75073e-13 6.81416e-13)
(-4.84858e-13 7.05285e-13 9.25579e-13)
(-2.26654e-13 -1.02573e-13 -7.73004e-14)
(3.34936e-09 9.87414e-08 2.01761e-08)
(-5.39706e-13 1.29371e-12 7.70454e-13)
(-2.81889e-13 7.95307e-13 -5.23125e-13)
(2.50489e-13 3.31049e-13 4.55561e-13)
(-2.0212e-13 1.28784e-12 1.96338e-12)
(-8.42276e-13 -4.71843e-13 7.62837e-13)
(8.08866e-14 -1.93226e-12 -1.0542e-12)
(-9.82346e-15 -1.30942e-12 -1.04835e-12)
(-1.67278e-05 -0.000187083 -0.000299579)
(-9.35948 -1.84745 22.2415)
(4.79131e-13 -3.25607e-13 4.83836e-14)
(6.92504e-08 -1.11085e-08 -5.37003e-08)
(-3.40566e-05 -0.000255617 -0.000875056)
(6.27227 -38.7659 -0.777716)
(-3.75848e-13 6.14932e-13 1.09874e-12)
(8.89068e-13 -1.18606e-12 -6.22254e-13)
(1.64394e-13 -3.3342e-13 -1.61698e-12)
(-1.70996e-12 -4.79328e-13 1.49477e-14)
(-0.000753326 -0.00158906 -0.000408649)
(-9.5569e-13 4.49278e-13 -6.00092e-15)
(0.00425263 -0.0193516 -0.0297681)
(7.52754e-13 -2.77913e-13 -1.27714e-13)
(-0.00212793 0.00040604 -0.0012461)
(2.46829e-13 -3.26043e-13 1.34774e-12)
(1.66142e-12 1.3034e-12 -2.3818e-12)
(-1.59158e-12 2.89324e-13 -4.80249e-13)
(1.59162e-09 -5.43618e-10 -5.93599e-10)
(2.84039e-13 -3.30054e-13 1.8517e-12)
(3.08315e-12 3.59952e-13 -5.23949e-13)
(8.13071e-13 2.5185e-13 -1.9404e-12)
(-2.70784e-16 1.27508e-12 -8.10789e-14)
(6.60855e-12 -4.21015e-12 -1.02342e-11)
(-4.95542e-09 -2.12483e-09 -5.73751e-09)
(-0.00989038 0.00714872 -0.00404721)
(-3.09259 -3.03662 1.32253)
(1.84478e-12 1.08404e-12 -5.45095e-13)
(3.68516e-13 6.06559e-13 6.42923e-13)
(7.1097e-14 -5.25594e-13 2.06763e-12)
(1.99879e-12 6.53675e-13 -1.31991e-13)
(8.23514e-14 -3.19083e-13 1.08059e-12)
(1.32668e-12 -6.99413e-14 -1.75809e-13)
(5.57892e-13 -1.44056e-12 -1.12209e-12)
(-0.219003 -0.0902018 -0.350189)
(3.4354 20.2428 2.31937)
(-0.142772 0.1774 -0.0396686)
(-3.83317e-13 -7.11475e-14 6.95715e-13)
(-7.18528e-13 8.85688e-13 6.04707e-14)
(-1.19821e-10 1.04863e-10 -5.04807e-10)
(-1.57551e-10 2.61205e-10 -2.08395e-10)
(-0.000117743 -0.000465023 -0.000359454)
(-1.39961e-12 -7.59984e-13 -2.17332e-12)
(-0.000138375 -0.000920911 -0.00084553)
(5.78335e-13 1.15389e-12 1.40686e-12)
(1.11505e-12 -9.72618e-13 -4.35251e-14)
(5.77955e-06 -2.06186e-05 -3.64804e-05)
(2.75851 30.0882 5.01766)
(-1.22706e-12 1.57535e-12 -2.13876e-13)
(-1.20846e-13 1.04171e-12 1.23498e-12)
(-3.58529e-13 2.75124e-13 1.60822e-13)
(1.60843e-12 -1.56718e-12 1.44875e-12)
(3.69594 -3.92898 1.77602)
(-1.21123e-12 -6.84938e-13 1.08006e-12)
(5.89618e-13 -8.52147e-13 5.17e-13)
(26.3365 8.05736 3.12346)
(-7.3869e-10 4.34223e-10 -6.51282e-10)
(-0.203766 0.00258362 -0.223514)
(-2.55559e-13 1.14361e-12 1.28497e-12)
(-0.0235449 -0.0148768 0.0105457)
(8.16537e-05 -0.000386114 -0.000406346)
(3.382e-13 3.79074e-14 -1.41288e-12)
(-2.03273 1.51822 1.15353)
(9.3625e-13 1.02159e-12 7.14934e-14)
(-0.0257797 0.0686152 -0.0236609)
(-1.38179e-13 -6.86733e-13 -3.55971e-13)
(-0.000300075 -0.00237686 -0.00137201)
(2.70205e-06 -2.62487e-06 -6.46724e-06)
(-1.65739e-05 -0.000467353 -0.000100863)
(5.96628e-13 3.10442e-12 2.40853e-12)
(-3.99865e-13 1.42031e-12 1.47232e-12)
(4.824e-14 9.70314e-13 8.02298e-13)
(-2.21317e-12 -3.16103e-13 4.27009e-13)
(9.45807e-10 -4.12036e-10 -1.73581e-09)
(1.62637e-12 -6.45031e-13 1.44127e-13)
(-5.96054e-08 1.14065e-07 -5.30747e-08)
(2.44387e-13 -6.01297e-13 -2.22378e-12)
(1.35554e-12 2.61873e-14 -3.80105e-13)
(-0.133562 -0.0955101 -0.238846)
(1.55998e-12 3.44162e-13 8.60434e-14)
(-0.0308922 -0.0173805 -0.0230861)
(-0.00154903 -0.00121358 -0.00201278)
(-5.70549e-05 -0.000405768 -0.000686817)
(-1.07309 0.281364 1.37886)
(3.54821 8.32004 21.541)
(-2.58118e-13 3.46496e-13 1.7586e-12)
(0.0274753 0.00176234 0.0023401)
(-0.95022 0.89214 -2.14197)
(0.736025 20.5748 23.1774)
(0.30324 0.72753 -0.867967)
(1.52494e-06 4.77433e-07 -1.31619e-07)
(-0.0353538 0.0158745 0.0325926)
(1.54194e-12 -1.1714e-12 1.74272e-12)
(5.64989e-06 -2.14011e-05 1.62484e-05)
(0.0508644 -0.0663882 0.0517204)
(8.50107e-11 3.65053e-11 -1.07706e-10)
(4.93537e-13 2.23008e-12 -1.26023e-12)
(-0.0517363 -0.109545 -0.134632)
(2.80556e-12 -4.03919e-12 -1.24674e-11)
(0.00821413 0.00711439 -0.0104199)
(-0.00426806 -0.000596266 -0.0169255)
(-0.0131764 0.0239601 -0.0233402)
(-0.147531 -0.657248 -0.0312516)
(1.94319 -19.4686 61.7582)
(-0.449822 0.17263 -0.543263)
(-2.33731e-05 -3.61292e-05 -7.57142e-05)
(-8.84341e-13 -1.12234e-12 7.19095e-13)
(1.49216e-11 8.23372e-12 -6.68045e-11)
(29.8405 6.38222 9.42864)
(-1.10667e-12 -8.30433e-13 4.12063e-13)
(-6.7384e-09 6.51651e-09 -1.49113e-08)
(-1.86456e-13 -3.78122e-13 7.44228e-13)
(-0.963625 -0.823019 -1.37125)
(-9.67261e-13 1.27611e-13 -1.13451e-12)
(-0.0164272 0.00278461 0.0181595)
(3.52049e-13 6.20911e-13 7.82361e-15)
(-9.14489e-14 -1.86812e-12 -2.26319e-13)
(4.17967e-06 -3.37399e-06 6.29801e-06)
(4.23584e-13 -1.57459e-13 7.19885e-13)
(-4.22755e-13 1.88459e-12 4.78207e-14)
(0.0300756 -0.0242676 -0.0149681)
(33.0601 11.4018 17.6373)
(-0.588675 35.8268 -2.42583)
(2.28679e-13 1.01265e-12 -1.71951e-12)
(-3.68687e-13 2.51573e-13 -2.01913e-13)
(-29.9878 0.462308 3.10102)
(0.000730364 0.000446867 -0.00011769)
(1.94905e-12 -3.25018e-13 2.24975e-12)
(-2.18738e-13 5.33716e-13 -4.34582e-13)
(-0.00333196 -0.00919165 0.00774642)
(5.84747e-13 6.82693e-13 1.81966e-12)
(-1.0074e-12 3.23292e-13 -1.86575e-13)
(-4.69412e-13 -6.58333e-13 -1.07455e-12)
(-2.41799 -0.86051 -2.95672)
(-1.10351e-12 1.41248e-12 6.22283e-13)
(3.41828e-06 -6.25113e-06 2.60826e-06)
(-0.628781 0.304384 -0.213647)
(1.66594 19.1966 1.01185)
(7.38743e-13 -2.28332e-13 -1.20238e-13)
(1.70406e-05 -3.89514e-07 -4.84562e-06)
(-0.0185984 -0.0134438 0.0110998)
(6.75844e-13 -1.18455e-12 -1.81893e-12)
(-1.24397 0.599657 1.27056)
(-0.00351229 -0.00513004 -0.0042284)
(-8.55773e-14 -4.94522e-13 2.41059e-13)
(-4.55393e-13 5.12723e-13 1.10663e-12)
(5.63398e-13 -4.64354e-13 8.86756e-13)
(-8.59269e-13 7.10893e-13 6.16079e-13)
(-1.82641e-13 1.00315e-13 7.17442e-13)
(-1.78588 0.980868 -0.228213)
(5.1565e-10 -9.20979e-10 -6.2094e-09)
(3.07221e-13 -4.21999e-13 9.56086e-13)
(1.0126e-08 3.64383e-09 -4.40585e-09)
(0.419151 1.89437 -0.0898672)
(-3.92151e-13 -2.05302e-13 -1.90777e-13)
(-7.1924e-13 -3.9762e-13 -2.36953e-12)
(1.07153e-12 -1.46733e-13 -1.45858e-12)
(-1.48364e-12 4.45368e-13 5.36142e-13)
(-0.0170549 0.00393314 -0.0132441)
(7.86682e-13 -3.63158e-13 1.26266e-12)
(-6.3842e-13 -2.31894e-13 -1.45063e-13)
(-3.68744e-14 -1.4786e-13 -1.19208e-12)
(-1.71902e-12 7.29162e-14 1.51556e-12)
(-2.25176e-12 -7.92253e-13 2.86442e-13)
(3.60815e-13 6.5603e-13 1.16567e-12)
(3.64697e-13 -1.43389e-12 -1.10295e-12)
(-0.0100256 -0.00494137 0.0311771)
(-36.7519 -0.636113 -2.16796)
(1.07295e-12 -1.45322e-12 -8.43133e-14)
(-1.18369e-12 4.11051e-13 -1.27999e-12)
(-7.46032e-13 -6.85715e-14 1.88508e-12)
(-8.34607e-13 1.10044e-12 1.237e-12)
(1.33697 1.29504 -0.744665)
(-2.27883e-13 -9.73412e-14 9.49401e-13)
(2.58788e-05 1.24042e-05 3.32372e-05)
(0.602576 3.1318 0.0477541)
(3.81744e-13 -1.72456e-12 -3.13336e-13)
(-2.45192 -1.21659 -0.313119)
(5.33419e-05 3.05557e-05 8.07006e-05)
(1.65661e-12 5.09787e-13 2.45571e-14)
(-4.99622e-13 7.71819e-13 9.49571e-13)
(3.74731e-13 -1.83825e-12 2.4198e-13)
(1.28697 5.10203 1.17563)
(-6.87003e-08 1.54079e-07 7.14898e-08)
(5.42807e-12 -2.25055e-11 -3.04214e-11)
(5.67483 15.7661 10.0238)
(-1.76254 -1.72289 -0.117799)
(-1.54194e-14 4.61392e-13 -7.07615e-13)
(1.07411e-06 -1.35912e-07 5.981e-07)
(-1.25246e-12 2.29254e-13 -1.31649e-13)
(1.12515e-12 -1.46408e-12 9.38862e-13)
(-1.83631e-13 -8.49071e-13 8.61895e-14)
(7.13035 10.8137 7.5519)
(0.000518453 -0.00195858 -0.00271135)
(-1.11259e-10 -4.04031e-10 -3.88766e-10)
(-7.13073e-13 9.71442e-14 1.22883e-12)
(1.3098e-08 -1.0064e-06 1.08446e-07)
(4.05634e-05 -0.000872214 -0.000621032)
(-5.44335e-11 -1.84988e-09 -1.44189e-08)
(-1.08995e-12 9.10546e-13 -2.64209e-13)
(-9.96543e-05 -0.000151808 -0.000110872)
(-0.0495432 0.0226463 -0.0753437)
(-1.80408 18.3631 7.82711)
(-4.41045 22.4039 -1.17912)
(1.77794 36.2606 -0.296878)
(10.3732 7.01432 9.30399)
(0.58957 10.5059 9.42215)
(-2.82488 9.73585 9.43887)
(-1.48664 23.4379 4.57519)
(2.06252e-09 1.91879e-09 -2.79439e-09)
(-0.0182595 -0.0014979 -0.0192551)
(2.52721e-12 6.74671e-14 -4.23484e-14)
(-0.0101237 -0.00480522 -0.00892982)
(-6.90817e-13 -2.93493e-13 4.59673e-14)
(35.6032 0.991481 -2.36393)
(1.36428e-13 -8.31114e-13 -9.89655e-13)
(-2.31185 3.61454 1.44028)
(-0.485034 0.243593 -0.849575)
(2.31882e-12 9.39313e-13 1.66307e-12)
(7.80852e-13 1.27377e-12 3.35782e-13)
(-26.5007 -0.814952 4.82342)
(1.52398e-12 -2.03633e-16 8.09211e-13)
(9.83141 16.7124 -4.36514)
(-38.2216 3.5123 1.03879)
(-0.436335 0.409349 0.752215)
(-2.81518 27.4502 3.16714)
(1.34873 1.61263 0.790684)
(0.830966 7.3116 8.12745)
(1.04174e-11 -2.63458e-12 -3.50911e-11)
(1.84791e-13 -5.13863e-13 -2.35786e-12)
(-0.321402 0.310005 -0.137987)
(-3.57807e-13 1.91253e-14 6.63685e-13)
(17.4636 22.9784 21.2615)
(9.62397e-13 -8.33388e-13 -1.03185e-13)
(3.25716e-14 -6.99135e-13 -1.31578e-12)
(-7.35701e-07 -6.6682e-07 -1.95962e-06)
(-0.0188373 27.3139 -2.06132)
(1.64237e-12 -1.27241e-12 -2.64625e-12)
(-2.6909e-07 -1.90942e-08 -3.14991e-07)
(-0.0171742 -0.0152383 -0.0065123)
(3.02671e-14 1.07076e-12 -5.32961e-13)
(2.96469e-13 7.95701e-13 -6.43662e-14)
(1.45271 26.2508 0.111151)
(0.817325 26.8558 2.25074)
(2.62087e-13 -6.96739e-13 -2.14125e-12)
(1.33628e-12 9.62618e-13 1.19798e-13)
(-0.936366 0.935373 1.19851)
(-0.000166035 -0.000341853 -0.000542957)
(0.425338 24.816 0.861765)
(1.64549e-12 -1.00548e-13 1.11252e-12)
(-0.00520437 -0.0324851 -0.0246558)
(-3.32597e-14 -2.35614e-12 3.85e-13)
(9.60996e-13 -3.78408e-13 -2.67507e-13)
(-0.991606 29.5805 -0.517499)
(-7.85135e-14 -1.74021e-13 -2.20018e-13)
(-2.9472e-06 -8.4222e-05 7.63566e-05)
(1.37917 33.012 2.33033)
(-2.95857e-13 5.76545e-13 3.36358e-13)
(-6.67227e-13 -4.31296e-13 5.19738e-13)
(1.93688 13.3489 -2.55953)
(-3.81745e-06 -7.75089e-06 -6.08635e-06)
(-0.0046299 0.0138411 0.0047579)
(3.67614 29.7565 -3.50297)
(-3.45847e-13 1.31439e-12 7.48535e-13)
(-3.58247e-13 9.12323e-13 -4.58595e-13)
(-9.16168e-13 1.86068e-12 8.09645e-15)
(1.98576 3.02352 1.07748)
(-9.79116e-13 -8.31856e-13 1.32861e-12)
(2.27402e-13 -1.08147e-12 5.46331e-13)
(1.23316e-12 -3.27393e-14 -2.45835e-14)
(1.62479e-09 -8.90927e-08 -1.48448e-07)
(-1.28761e-06 -1.39386e-06 -1.84441e-06)
(-0.186866 0.203703 -0.243986)
(1.52312e-13 1.11019e-12 -1.08189e-12)
(8.76472e-13 1.20438e-12 -2.72589e-12)
(8.92419e-13 8.29162e-14 5.28763e-13)
(-0.000700254 -0.000617079 -0.000565458)
(-1.84889 31.6268 0.53753)
(-1.1088e-12 -1.74359e-12 7.59218e-13)
(-0.279528 -0.0793124 -0.343873)
(1.99126 30.8781 1.43983)
(-0.0731495 0.0200454 -0.0649023)
(1.43355e-12 -3.85865e-13 7.73173e-13)
(5.51839e-13 -1.10848e-12 1.63307e-12)
(-0.711452 34.6916 -0.0152511)
(-0.569148 29.7819 2.19463)
(3.21246 23.0971 0.705966)
(-0.000262253 -0.000580518 -0.000405055)
(-26.3289 -4.94778 6.58529)
(-1.00605e-12 2.55664e-12 3.5251e-13)
(-41.391 -0.484234 -2.32609)
(1.05968 2.21587 1.33322)
(-41.8015 0.218454 -0.722816)
(-1.1575e-12 5.27689e-13 9.27596e-14)
(-6.30539e-13 -1.42457e-13 -6.12231e-13)
(-3.83615e-13 -2.8225e-13 -1.12259e-12)
(1.03789e-13 6.5064e-13 9.60421e-13)
(9.27888e-13 -6.53629e-13 8.56023e-13)
(-35.5335 -1.83785 0.826039)
(2.13233e-13 -2.90694e-13 -1.33953e-12)
(-3.05737e-10 7.56191e-10 -2.5309e-09)
(1.21786e-12 -1.40623e-12 -8.20067e-13)
(8.66354e-08 7.64652e-09 -2.29729e-07)
(-1.80917e-12 7.60257e-13 1.20491e-13)
(-4.95057e-05 -5.42806e-05 -4.31163e-05)
(-2.29121e-12 -8.70172e-13 -8.37807e-12)
(-0.609932 0.232661 0.0133944)
(-29.5262 0.179448 4.82126)
(2.49415e-13 7.72309e-14 -1.09167e-12)
(-0.139872 0.188076 -0.0672761)
(-1.30634e-12 7.05338e-14 -2.31062e-13)
(-0.092512 -23.7742 0.501021)
(-35.1864 3.04376 0.791279)
(7.54206 1.82069 8.52403)
(-8.78967e-06 -1.17542e-05 1.03809e-05)
(-38.3262 0.609141 -0.23081)
(3.08058e-13 -4.23335e-13 -3.00474e-13)
(-1.44475e-12 -1.33415e-12 8.45936e-13)
(-4.11744e-05 -0.000108742 -0.000233199)
(-34.5565 -1.24737 1.0688)
(4.04082e-13 4.22713e-13 -6.29377e-14)
(2.03579e-13 1.4663e-12 -8.79374e-13)
(2.86366e-10 2.97978e-10 -5.07096e-10)
(-1.67547e-12 6.14396e-14 1.70079e-12)
(-39.8285 -2.56985 2.02639)
(7.12826e-13 -4.99447e-14 3.02462e-12)
(3.48121e-13 1.22773e-12 -9.55926e-13)
(-7.40957e-13 -6.17261e-13 8.73018e-13)
(2.27195e-12 9.83504e-13 1.29666e-12)
(2.26622 0.278154 -1.36345)
(1.09764e-12 7.84641e-13 -3.99218e-13)
(1.57943e-13 -1.34924e-12 -4.06757e-14)
(-41.5861 1.2942 -0.791001)
(-36.9226 7.88857 1.42676)
(0.132322 -0.217744 0.816902)
(-6.09194e-13 -1.84226e-13 -6.87604e-13)
(9.19324e-13 1.49048e-12 -7.12969e-13)
(1.33732e-12 4.65163e-13 1.31857e-12)
(-2.327e-06 1.31856e-05 -3.26706e-05)
(1.99443e-13 8.39438e-13 -4.41951e-13)
(6.06865e-13 5.44565e-13 2.82797e-13)
(3.91015e-13 4.5673e-13 -2.97385e-13)
(-4.33789e-13 -3.43796e-13 1.63089e-12)
(-1.48384e-12 5.57159e-13 -3.47148e-13)
(30.0393 -0.740892 -2.35399)
(31.6928 -0.608262 -1.65208)
(-2.00094e-13 5.12995e-13 -4.11169e-13)
(-7.06456e-13 -1.50452e-12 -5.13635e-13)
(29.0476 0.445058 -3.57881)
(-0.439796 0.804725 -0.876343)
(2.96093 2.67109 1.22454)
(7.46537e-08 -1.97824e-07 -2.81604e-07)
(-8.48872e-13 7.76367e-13 4.68855e-13)
(4.8421e-09 -7.15151e-09 -2.45369e-08)
(0.000119355 -8.08402e-05 0.000120521)
(2.12796 0.643123 0.902692)
(0.00961175 0.289182 -1.47228)
(27.9389 -0.3179 -1.60326)
(8.6972e-13 -4.60844e-13 -8.4091e-13)
(36.9203 -0.856874 0.582958)
(-4.13748e-13 -1.60745e-13 8.58962e-13)
(7.03745e-13 -1.91685e-12 1.66262e-12)
(29.9827 0.305539 -1.66352)
(32.2467 -0.400093 -1.07638)
(-6.13687 3.12932 8.79762)
(3.11691 1.44703 5.75109)
(-4.44966e-13 1.01971e-12 1.16493e-12)
(8.32617e-13 -1.14174e-12 4.02382e-13)
(8.51264e-13 -4.79074e-13 1.6382e-12)
(-2.21194e-13 9.22945e-13 1.00921e-12)
(31.0171 0.683767 -0.0518872)
(5.35376 24.5613 -1.32031)
(28.6895 0.57558 0.0773069)
(31.2923 2.96894 -5.56838)
(-1.73928 -0.345016 1.21006)
(2.61147 1.28804 0.527271)
(31.1043 1.26507 -1.82415)
(-2.48903e-13 -3.02087e-14 -4.23441e-13)
(-40.5108 -4.39108 1.27067)
(0.000433399 -3.57922e-05 -0.000253152)
(1.13389e-05 -3.72532e-05 -0.000103512)
(-0.233722 -0.447862 -0.265233)
(2.7338 33.9932 10.1946)
(-2.75032e-13 -3.49735e-14 7.40625e-13)
(3.22496e-05 1.03028e-05 0.000138572)
(-1.33891e-12 -8.06377e-13 8.90734e-13)
(-1.00762e-12 1.47441e-12 -6.34833e-12)
(0.000332054 0.000224831 -0.000680261)
(1.1491e-12 1.08978e-13 8.59119e-13)
(-0.0677185 0.100749 -0.0536229)
(2.50627e-13 -4.93977e-13 -1.69051e-12)
(-2.07736e-12 1.34572e-12 4.09153e-13)
(-3.1636e-06 8.79456e-06 7.57203e-06)
(4.17122e-13 2.26716e-12 3.28313e-13)
(2.47197e-06 -3.38693e-07 7.05679e-06)
(-6.51862e-13 1.78159e-14 2.21623e-13)
(-8.63329e-09 -5.71527e-08 -2.31544e-08)
(-3.34814e-13 -9.34247e-13 -3.59871e-13)
(-5.97853e-06 -1.17063e-06 5.55549e-07)
(-0.00732316 0.00666454 -0.00806174)
(-0.0255452 0.0283105 0.0740586)
(1.69202e-13 -3.00696e-13 1.22497e-12)
(0.00363076 -0.000186862 0.00771445)
(0.0402108 0.00377519 0.0429319)
(-1.62881e-11 -1.78328e-12 -2.59011e-11)
(0.000528175 0.000574696 -0.000300241)
(7.85274e-13 -2.27443e-12 1.60719e-13)
(-0.136089 -1.51361 -1.01434)
(-1.31055e-05 -5.22534e-05 -1.53612e-05)
(7.80386e-10 -1.46105e-09 -9.93044e-09)
(4.1949e-07 4.37684e-06 -1.22954e-06)
(-9.03729e-06 -6.99161e-05 0.0121193)
(-0.0798949 -0.251147 -0.80211)
(-8.71203e-14 -6.4011e-13 7.9931e-13)
(9.30133e-06 -1.38546e-05 -2.74558e-05)
(-1.66648e-14 5.28546e-13 5.16289e-13)
(-1.74024e-13 3.60567e-13 -8.91087e-13)
(1.38824e-13 1.31672e-12 -1.58122e-13)
(8.98269e-05 1.63451e-05 0.000142963)
(0.133756 0.0884832 -0.058775)
(3.44504e-14 1.06403e-12 1.42362e-12)
(-0.000408036 0.00139161 0.00170462)
(-0.00121456 -0.00334838 -0.00293931)
(-0.000121471 -4.07614e-05 -0.000236417)
(-0.86582 35.3665 2.632)
(1.592e-13 7.45541e-13 8.80643e-13)
(-8.37258e-07 -1.89183e-06 -5.14927e-06)
(1.79961e-12 -2.40306e-11 -4.18691e-11)
(-1.18397e-12 2.44148e-13 3.21873e-13)
(3.49719e-14 2.1412e-14 -4.80018e-14)
(3.10468 -0.597017 1.92745)
(0.000240344 -0.000130507 0.000707231)
(-1.15897e-05 -6.2648e-05 0.00037685)
(0.00149678 0.00354853 -0.00286986)
(3.67434e-13 -7.55088e-13 -9.01276e-13)
(-9.51216e-13 9.00352e-13 -4.76793e-13)
(-0.000445717 -0.00186945 -0.000627232)
(-6.907e-11 1.36889e-11 -5.52612e-10)
(-4.9816e-05 7.31517e-06 5.64476e-05)
(-0.000201924 -0.00134472 0.00456648)
(-1.12588e-05 -1.87942e-05 1.02929e-05)
(4.98833e-13 -1.13371e-12 1.6438e-13)
(1.06555e-12 -1.97563e-13 2.51489e-12)
(14.1178 25.5233 2.96704)
(4.60673 32.4753 6.71227)
(-3.47911e-08 2.61789e-09 -8.06993e-08)
(-2.39672e-06 -1.69921e-06 -3.99083e-05)
(-9.2732e-13 -3.82596e-14 -1.40985e-12)
(1.25944e-13 8.22316e-13 2.60529e-13)
(-4.64671e-13 2.55521e-13 1.80659e-12)
(6.5163e-11 -1.97735e-10 -4.35034e-10)
(-0.0105614 -0.00948789 0.00530352)
(-0.00050848 0.000108203 0.000767548)
(6.70941e-05 -2.1214e-05 -0.000167271)
(32.685 -5.41344 -4.83429)
(-1.12146e-12 3.73643e-13 1.75523e-12)
(1.40509 0.275776 1.54384)
(4.18545e-13 -4.86724e-13 1.6655e-12)
(-0.000108753 0.000137028 0.000114721)
(8.39674e-08 1.76286e-07 -1.05744e-07)
(0.285212 1.53596 1.27273)
(9.88569e-13 1.5712e-13 2.66685e-12)
(-5.64201e-05 6.37514e-05 5.28804e-05)
(-0.000254816 0.000173439 8.22829e-05)
(1.05401e-12 3.77621e-13 -7.67536e-13)
(-0.0926987 0.331063 -0.303215)
(-1.89752e-12 1.06147e-12 9.57475e-13)
(4.22179e-06 -8.57725e-07 -2.4011e-05)
(-2.5665e-06 5.14891e-06 -1.41995e-05)
(-9.23072e-13 -7.92739e-13 1.8232e-12)
(-1.79936e-12 4.24966e-14 -1.09155e-12)
(-1.44355e-06 1.3097e-06 -8.80954e-06)
(3.60277e-13 -6.47911e-13 3.88903e-13)
(1.68246e-06 9.62327e-07 -6.69203e-07)
(-3.88728e-12 -3.13394e-12 -8.95352e-12)
(-5.43994e-13 -7.38316e-13 -1.32517e-13)
(27.6339 17.0909 14.178)
(-0.132208 0.0179899 -0.546585)
(1.24169e-05 -4.7325e-06 -2.90076e-05)
(-0.142379 31.6826 -3.80776)
(-7.08842e-13 6.00515e-14 -5.96343e-13)
(-0.00770991 -0.00335754 -0.010219)
(-0.0592005 0.441096 -0.77852)
(-1.41735e-13 -1.35881e-12 -2.14433e-12)
(-6.48622e-13 1.23438e-12 -1.87057e-12)
(4.38394e-13 3.75341e-15 7.63457e-13)
(-0.000513972 -0.000110336 -0.00066798)
(-0.000271259 -0.000102362 -0.000211123)
(0.000219879 0.000106088 -0.000245142)
(3.3898e-13 1.06547e-12 1.93713e-12)
(-2.05397e-12 2.10183e-12 3.97588e-13)
(0.000316601 -0.000369014 -0.00267649)
(0.000246647 -0.000518109 -0.00069938)