/*--------------------------------*- C++ -*----------------------------------*\
| =========                 |                                                 |
| \\      /  F ield         | OpenFOAM: The Open Source CFD Toolbox           |
|  \\    /   O peration     | Version:  2312                                  |
|   \\  /    A nd           | Website:  www.openfoam.com                      |
|    \\/     M anipulation  |                                                 |
\*---------------------------------------------------------------------------*/
FoamFile
{
    version     2.0;
    format      ascii;
    arch        "LSB;label=32;scalar=64";
    class       volScalarField;
    location    "0.35";
    object      epsilon;
}
// * * * * * * * * * * * * * * * * * * * * * * * * * * * * * * * * * * * * * //

dimensions      [0 2 -3 0 0 0 0];

internalField   nonuniform List<scalar> 
32842
(
0.057729
0.0577109
0.0576987
0.0576984
0.0702606
0.0576984
14510.3
6092.91
0.0576984
0.0576979
368.696
753.221
0.0576158
0.0576984
0.0577775
0.0577371
0.0576689
0.0576983
0.0577773
0.0698918
0.0716337
0.0709186
0.0695014
0.0576987
0.0690933
0.0576984
0.0576984
0.0658536
0.287924
0.0577096
892.703
0.164613
169.94
0.0576566
526.83
11663.7
0.0719731
0.057794
0.0576439
0.0577101
0.0576985
0.0714138
0.0576984
0.0576984
0.206794
0.0576831
820.096
0.0576105
0.070932
0.379241
875.411
0.0576984
0.135652
2.74651
0.0576986
0.166783
0.0576984
11.2897
0.0576984
0.0576984
2818.58
0.140833
0.126528
0.0714478
0.0576622
160.237
0.0576985
0.119488
0.179625
0.0579859
0.0652542
17.8559
0.15829
0.0576984
0.0576984
0.057513
0.0338044
0.0576984
0.159641
792.308
0.0700978
0.0576984
0.0576984
0.14511
0.107068
0.0576984
0.0576984
0.16113
0.261058
0.0576982
0.0702397
0.0708957
127.234
0.0577126
0.0576984
0.0576587
0.16352
0.0577477
0.11278
0.0576984
0.0576984
0.0760301
0.058069
138.582
0.159753
0.172573
36.9551
0.0584051
0.145451
0.0577764
0.0576982
0.0576972
161.264
0.0576982
0.0580247
0.0711105
0.148036
70.8103
0.0580026
0.0576507
0.0576956
0.0576981
0.137705
0.0576986
0.0554394
0.161502
0.191912
0.0576565
229.354
0.0576986
0.0576984
0.0595958
0.0830249
0.151329
0.0810984
0.0577723
0.0305911
6.6658
0.0576547
0.0577262
0.149334
0.0576798
0.151437
0.217789
0.0576964
0.0576893
1956.84
0.0577022
0.0576984
0.0576785
0.0597401
0.379067
0.0677989
704.192
0.0576929
0.0576984
0.0576984
0.0577023
0.0577515
0.0576982
0.057738
0.0576984
0.0691986
0.0576984
0.0576506
0.0576687
0.0576984
0.0576602
0.0577511
240.964
1.11139
0.0772736
41.453
0.0576984
0.0718335
116.095
0.0576296
0.0581644
0.0576984
0.0576976
0.0664878
0.0576651
0.0576631
0.0576984
0.147271
0.0576656
0.155322
0.0576864
0.0576571
0.0576225
0.0576338
0.233403
0.182424
0.0576984
0.176247
0.0576091
0.0576161
0.057608
0.163557
0.0576945
0.0576239
0.0577623
0.497758
312.658
32.2119
0.10627
0.0576802
0.0716173
0.172109
0.0576993
0.0576813
0.0583538
79.2293
68.3096
0.057674
0.0576984
0.0576992
0.0576995
0.0577309
0.0577152
0.0961889
0.0576984
0.0576982
0.0577368
0.0763547
0.203472
0.0576986
0.170504
0.0576568
544.906
0.0576979
0.0576976
0.0576004
0.0576984
226.029
0.0700144
0.0704328
0.0344352
0.0576574
0.141225
0.61089
0.0576664
0.0577125
297.017
0.0576224
0.0576741
0.132963
0.0576984
0.0576984
0.0576831
0.0576984
0.0576984
0.057737
0.164799
0.0576094
0.0576984
0.0576546
61.3535
0.0576777
0.0576618
0.0576983
0.0576984
0.0576984
0.0576985
0.211135
0.0576984
0.0576979
0.0576128
0.057742
0.0576986
0.0576982
0.166002
0.0576983
0.204933
0.0576984
20.3627
0.0577268
0.0750123
0.0576984
0.0577168
0.0576981
131.372
331.006
0.0576984
0.0577215
0.188848
77.2916
0.0576984
0.0715372
0.0576984
3492.91
0.0576985
0.179872
178.845
0.145589
0.056726
0.180765
0.0576976
0.0575555
0.0689938
1001.97
0.0576984
0.0576843
0.0576929
0.0576984
0.0576984
0.0576984
0.0576984
0.0575855
0.139009
0.0576848
0.0576984
0.142755
0.0576966
0.0576984
0.057683
0.0576842
182.143
0.0576958
0.0577129
0.0577213
0.222436
0.0576917
0.0622665
0.0576986
0.057688
0.0577176
0.0576986
0.0576545
0.0576984
0.0577198
0.159448
0.0576984
0.0576984
0.0576296
0.0576984
0.0867489
0.179705
0.0576984
0.0576682
0.05764
0.0577251
0.0465462
0.0576984
0.139241
0.0576984
0.0576984
0.168862
0.121715
0.15149
0.058091
86.1517
0.0577346
0.164001
0.0576981
0.0576235
0.0710038
0.057705
0.0576963
0.0576704
0.0576984
0.0576984
0.0576483
0.881341
0.0576983
0.057706
0.0576984
0.0576984
0.0185653
0.0686118
0.0576984
8008.72
0.0576546
0.0784296
0.0576984
0.144672
0.0745273
0.0576984
0.0525528
0.0692956
0.057694
0.137162
0.163684
0.0576851
0.0576675
0.0576987
0.0576984
0.0576984
0.0576984
0.0576612
0.057677
0.0576442
0.0576796
0.0576984
0.0577246
0.0576984
0.0576983
0.0577447
0.0577363
0.057705
580.04
0.0576984
0.0576863
0.0577786
164.976
0.0577753
0.0576474
0.0785536
0.0576984
0.0714224
0.186323
0.0576508
0.0576984
0.057692
0.0576633
0.0577079
0.0577122
0.0577105
0.0577738
17319.4
0.0577996
0.156866
0.0576984
0.0718909
4860.06
0.0576984
0.0577023
0.0576984
0.0559523
0.0576985
0.0575688
0.0576984
0.0576984
0.158122
0.0699604
0.0824954
0.0576733
4361.36
96.1232
0.149208
0.0714839
1.76209
0.0716096
0.146902
0.0576752
0.057664
0.0635978
0.0576986
0.0682134
0.660472
0.0576987
0.0575921
0.0579095
125.01
0.0675408
0.057639
0.0576848
0.070612
0.057649
0.0578832
0.0577315
0.0722871
0.0576984
0.0576984
0.0576984
0.0576512
0.0576884
0.145433
0.0576354
0.0579034
0.0576984
0.0724668
0.0703244
0.0576984
0.0576631
0.144922
0.154784
0.0576984
0.0576986
0.0576984
0.0576984
0.0701401
0.057655
0.878967
0.14519
0.057694
0.0576986
0.114479
0.0578665
0.0576984
0.0730122
0.0580963
0.0639258
0.0583027
0.149566
0.0717419
0.185965
0.143565
0.0557855
0.0575758
0.0715052
88.7419
0.0576713
0.153323
0.0730347
0.113186
0.0676383
0.0576982
70.2905
0.0731275
0.0576494
0.158478
0.0575781
0.155761
0.0576612
0.0576986
0.0747687
0.0785763
80.4329
9977.04
18.7532
53.3845
53.4083
26.2124
126.218
0.150417
0.0576644
0.0576712
0.05767
0.14585
3.65454
0.126521
0.202241
0.0578049
0.0576937
0.0677669
1.86632
0.0576988
4198.72
17.2024
0.0578261
677.616
0.0490315
13.5099
0.0576497
0.0576984
0.057758
0.151318
274.075
0.0576984
0.0726151
0.0577006
0.094443
0.179256
0.0576907
0.0577127
0.0576831
0.0576984
0.503852
0.213676
0.0576984
0.0576984
0.0577627
0.159678
0.471115
0.117427
0.0577144
0.0576947
0.0576984
299.224
0.144312
0.188311
114.487
0.182354
0.0576984
9.05476
0.182464
0.0576704
656.116
0.0576984
0.0702037
0.0576984
0.0588686
0.070446
0.0693158
0.0576984
0.0576702
0.0576892
0.0577444
0.144521
0.0718932
0.0576985
0.0577174
341.478
0.0576984
0.0909017
238.585
0.124491
0.0577354
0.057697
169.791
250.52
808.133
0.0576542
36.0023
0.101845
0.514054
0.0584608
0.246642
0.0576985
0.0576982
0.0576987
0.0576984
0.0576984
0.362243
0.0705797
0.0576612
0.0576984
0.0576841
0.0576984
0.0576558
0.0576797
0.0577681
0.275915
0.117895
0.0577861
0.0576984
0.225918
0.291497
14.1087
0.0575894
0.111769
0.0576982
0.0576984
0.0577416
267.791
0.160051
0.0576984
0.0708162
0.0576984
0.727706
0.0576984
0.0576984
0.0576985
0.0576985
0.111954
0.0576984
0.0576984
28.9517
1.8035
0.0573814
0.0576936
0.0576982
0.181231
0.105477
0.0576984
0.155806
0.0698657
0.0576984
0.0576984
730.427
371.155
0.0576984
0.114176
852.904
0.0577935
0.0708374
0.0576841
0.0576984
0.0724294
0.0740618
0.0597943
0.0577147
911.132
0.0576984
59.4252
0.0576983
0.0576984
217.028
469.326
2.02579
0.326867
0.0576984
0.0576916
0.0684937
0.0695925
470.538
848.151
360.137
509.814
0.0576876
0.0581363
277.051
0.0576983
1.44653
0.0576874
0.0577791
0.1339
892.508
0.0577317
0.0576822
0.0576983
0.0576636
0.0576646
0.0576984
0.0577211
0.0576984
0.0576984
0.139867
0.0576984
0.05769
0.0576984
0.0905434
0.0576971
0.0576064
0.0577019
0.172725
0.0576984
0.0576453
0.0574006
0.0576263
0.057654
0.0576985
0.059431
0.0577022
0.0576497
0.0576942
0.0576575
0.0338249
0.0577382
0.0724761
0.0631073
0.0722402
0.0576984
0.0738534
0.0806329
0.184443
0.0576432
0.0577353
0.0712288
0.227539
0.0576984
0.198105
0.0698615
0.0576984
0.0576984
0.0602783
0.0576571
0.0576781
0.134079
0.0576984
0.0576927
0.0576675
0.0719256
0.154915
0.0576784
0.0725887
0.0576984
0.0683393
512.923
366.414
0.0692063
0.0576482
0.122874
0.0576852
0.0576984
0.0576401
0.0577152
0.0578064
0.0576164
0.1255
0.0576984
0.0585608
0.135367
0.0733816
0.0576784
0.057928
0.0576984
0.121203
0.0793747
0.150375
0.0577603
0.185063
0.199569
0.0710314
0.0576986
0.0677219
0.0576693
0.0724517
0.0576343
0.0576712
0.0711991
429.398
0.15972
0.05767
220.81
0.0577268
0.188696
0.0577725
0.0576983
0.0576769
0.0576984
0.057638
0.0577439
0.0576524
0.0576914
0.0576984
0.0576778
0.0576756
0.0577006
0.166439
0.0580732
0.139889
0.0576933
0.0577207
0.070583
4.63112
0.0576936
0.05769
0.0713875
0.0576959
0.0579652
0.057691
0.0762157
0.127327
0.0576984
0.0576984
0.0578197
0.0577215
0.0576984
0.0577621
0.0576756
0.0576984
6272.98
0.0576321
12.919
0.0577366
0.0576686
0.0575965
0.0577563
0.069751
0.057663
0.0576984
0.0576984
0.0576762
0.511754
0.0576984
0.057724
0.152286
0.0577363
0.161408
0.0576939
204.539
0.0576048
0.0576404
0.122461
156.453
0.0575793
0.0577845
102.806
0.074129
0.0576052
0.0576806
0.0576984
0.0576664
0.0576685
0.161919
9.55662
0.154856
0.0576984
0.147237
0.0576547
0.0577006
0.0577457
0.0745364
0.063311
0.0576858
0.057749
0.0576984
0.0577475
0.0578883
0.0576984
0.0576683
0.0577379
0.057791
0.169712
0.0735232
0.0576984
0.265999
0.537045
0.0576502
0.0464604
0.0353477
0.0576984
0.0576934
0.0576602
0.200709
0.0576984
0.0576984
0.166779
0.0712752
0.0576891
0.0576984
0.0576984
0.0576822
0.062738
0.454285
0.0576981
0.057646
0.190704
0.0576729
0.0576743
4.52447
0.0576759
0.0576984
0.0576986
0.0576304
0.165652
0.0577384
0.0576386
0.0576984
0.057659
0.0745698
0.0576984
0.190907
0.070263
213.614
0.0576984
0.0576984
0.0576201
0.0576806
0.0577493
0.0576984
0.0442757
121.282
0.0673032
0.15139
0.0576984
0.068721
0.0576984
0.0576984
0.0576606
0.0576984
0.0576876
0.0576984
0.0576984
0.0576298
0.0576979
0.0576984
1139.1
0.0576954
0.119539
0.057661
0.141125
0.145983
0.0576984
0.0692088
0.142222
428.859
296.457
0.239618
0.0576779
0.0576987
0.0576984
0.0576987
0.498922
0.0576986
0.327847
0.394778
0.30406
0.314949
0.0633619
57.5251
0.0576984
2.82345
9302.62
0.0576951
360.957
0.0565067
0.0577877
0.0576984
0.0576804
1.21467
0.0576446
0.152317
0.0706901
355.398
0.210124
0.136784
0.0781336
0.0576984
0.0576634
0.0577424
0.0576146
0.0579991
0.0576983
0.0576553
0.0577393
2.75514
0.0738057
0.0577418
188.612
0.0576705
0.0576421
0.0577437
0.0576925
722.003
0.402493
0.0576264
0.057718
0.0576483
0.154953
0.261782
0.0576756
0.570373
0.141303
23.9682
0.0577197
0.0576984
769.204
0.138509
0.0575944
0.0576252
0.0576925
0.0576766
33.2106
0.0576853
0.197679
0.0576298
0.0576984
0.0576399
0.0577079
0.0609189
1.34831
0.0576735
0.0577239
497.91
0.279412
0.170405
0.0576147
31.9808
769.73
0.0576364
0.0576985
0.0576949
0.121188
29.7608
0.0576487
0.0680996
2.7305
0.0576455
0.0657284
2.43974
0.0576532
0.0576928
0.057681
0.0576787
208.424
0.0577177
0.0577423
0.0344672
4.14877
0.0647559
0.0630921
1.86069
0.057702
302.662
0.208186
0.0577219
0.125871
0.273951
19.9859
0.877109
14.5591
12.5093
0.0576589
2399.45
0.168785
0.0444498
0.0577435
0.0576307
0.057634
0.0577226
0.0576376
0.0577001
0.0577306
135.924
0.0576984
0.0576982
0.168511
0.0576984
0.0577218
727.759
0.306167
0.0795291
0.0639808
0.0577061
0.774392
218.733
0.16627
0.05772
0.0576865
0.0577307
0.734063
182.615
0.0752718
0.058469
194.026
0.0576424
1.63496
0.0583
0.0576953
0.848146
0.0741236
0.0577895
0.452137
0.0577403
0.0576592
0.510771
293.438
84.827
0.0577178
0.0576553
0.0576984
0.0577096
0.0582679
0.0588393
2.36313
0.0576984
0.0576984
54.213
0.057651
0.0576715
0.848619
0.0576984
22.3894
37.677
0.0576984
0.0576842
33.9547
7.09515
21.3473
16.2842
0.0576844
182.932
37.0428
0.078422
147.846
0.052181
0.131105
0.057672
0.0576187
0.0578958
3.13583
0.0807396
0.0577309
0.731167
0.174056
5.65241
1.173
0.0576984
0.728918
1.97047
0.206743
0.0576984
0.0576265
6.58535
0.0577187
0.0578079
0.222041
0.0586366
191.749
3.69329
0.0893741
0.0621449
0.0576647
0.0576816
10.7364
0.385923
0.0576856
0.0579088
0.0576984
0.455631
0.057881
0.474308
561.323
0.057928
0.170602
109.946
0.177191
23.0656
58.9912
1102.92
0.0583956
0.144763
39.1052
0.372824
0.0671531
0.0576984
25.574
0.0578366
0.0579582
0.0828349
0.0532319
0.163968
0.712575
0.0744153
0.133479
5606.29
0.0576809
48.7023
0.0778006
0.132298
53.1583
0.0577986
0.05652
0.152029
80.4776
0.0801389
0.0576984
0.138056
0.0576984
0.0702921
17576.6
0.0694655
0.0577851
0.168848
0.50569
0.0575738
174.761
0.0576984
0.0576551
0.0576838
0.0577417
26.5527
0.0688007
0.0576984
0.324754
0.221852
0.0578179
0.0578579
4.87132
0.0576532
0.0576984
0.0576969
28.0033
9.67624
0.057635
116.412
0.0576984
157.202
0.160998
0.0592257
0.163549
12.0678
0.253421
0.099442
0.0577575
0.770066
11.9448
384.32
309.578
218.41
0.0716467
13.1098
0.0576835
176.458
0.057736
0.169723
0.0576559
3.92008
0.0576523
0.0711756
0.0644317
202.878
19.4882
0.0710378
0.0576649
240.826
0.179148
0.0576509
0.0576984
81.6791
0.314812
0.0576274
0.13046
0.0577187
1.26238
2.07572
0.129792
0.0576454
0.0576817
6.41528
958.412
0.0701673
0.0578217
0.0746221
0.0576412
0.0577501
16.6132
0.0576984
0.154721
0.179768
0.0577509
0.557002
0.0576977
607.309
797.596
0.0576984
0.0833075
37.1591
0.0576985
0.0576984
0.0576966
0.26722
0.0576859
0.0579829
0.0577021
0.0743625
0.0579569
0.0584861
0.0577573
0.0576983
0.0576862
0.0577074
0.0576789
0.0576494
0.0577512
0.0577337
0.057681
25.5853
0.058
0.0577045
588.803
0.0402169
0.0576499
0.0576651
0.0578831
0.0576984
0.0730313
7.01485
0.0575753
0.0577707
0.0581187
0.0602832
0.356204
438.266
0.0792533
0.190439
102.328
0.0577126
0.057708
175.452
120.809
0.0705042
0.125497
0.0577175
0.0575377
601.568
0.0706743
190.404
0.073173
0.0752649
0.0672118
0.0575858
172.885
0.0576872
0.0576987
0.0758551
140.974
1098.54
0.208398
114.642
0.0695315
0.068566
0.116267
0.0576235
276.794
35.2162
0.0690711
190.927
0.0576463
703.905
0.0576561
0.0623853
0.0576919
5.18209
0.0576984
81.5341
0.0577658
0.0576851
0.0757611
4.43831
0.330848
0.0588605
0.0576696
0.057675
19.3948
0.0576736
0.0576984
1488.54
0.0576984
15.527
0.0576409
0.0577314
0.0581518
0.0577594
0.0577449
0.0576984
14.6693
0.0576639
1.03059
0.358878
0.0577161
0.0576738
0.0577757
0.0576735
0.057744
0.0576519
73.229
0.0576394
0.057634
0.0576984
0.0754984
0.201356
0.0576938
0.0577334
0.0576977
284.306
0.0576443
0.0577396
0.0577329
0.0577232
0.0576627
0.139261
0.0577259
0.0577087
0.0577056
436.21
0.058076
0.0577554
0.0576064
0.141016
0.0580716
0.0583765
0.0234599
0.057704
0.0581631
0.0577147
2.81953
0.057664
0.0577307
0.0549462
0.878421
22.3649
0.0577936
149.521
143.752
134.731
0.0576835
178.167
0.0274109
0.0686049
0.0577439
97.987
69.0888
0.0576111
0.0576987
0.0577602
0.0576117
40.4311
36.1079
0.0576459
0.0576984
0.0565211
0.0577773
0.0580089
1293.73
0.0577038
471.646
175.951
0.0576985
0.0599407
0.275829
0.0593211
0.0514575
0.0576593
0.0576262
0.171737
0.0576671
273.966
0.0576019
0.0588753
0.0577313
0.130504
0.0751974
0.0576506
0.0576699
0.0576983
0.0576659
0.0591064
0.0576783
22.1571
0.0576537
0.0281369
0.0460128
0.0842965
0.0576421
0.0188611
0.131327
0.057681
50.7242
1.66523
0.0793946
0.0577393
0.0576644
0.14788
3.76837
0.439374
0.232598
0.0577286
0.0576984
0.0848774
0.0576224
0.542361
0.0576565
0.0576649
0.0717953
0.180668
0.0576838
0.0576984
171.706
0.0576984
0.0576721
0.0576984
0.0576984
26.5094
0.131221
56.3935
0.0576984
0.0576554
0.057649
283.224
0.0600991
967.472
540.966
0.0746511
0.057663
0.0576833
0.0576902
0.0576984
363.542
468.214
0.0576984
0.0576584
0.0576742
0.0576613
0.165448
0.0576984
0.149447
0.0576984
0.143453
0.0725028
2.38485
0.0576984
0.0576967
0.0576984
0.0578952
0.0577497
0.0577963
0.0576984
0.170169
0.0579698
0.431328
6.5792
0.57624
0.0576431
0.0577816
0.0576986
0.0576984
0.0582712
199.803
0.0576984
0.0576311
0.0576628
0.138971
0.489873
210.927
164.369
127.292
0.153759
0.0839821
2162.04
0.0573931
0.175519
0.0575871
0.0576081
0.0790251
0.412489
571.913
0.108686
0.0576945
0.156455
799.042
0.0576983
0.0576983
0.0580245
0.0576886
0.0576554
0.0576745
0.070299
1193.69
0.0576985
45.6624
708.615
0.057698
0.0576984
0.0576984
0.0576344
0.0576982
0.0576965
0.0577107
0.0741025
5.06366
0.0580037
0.175018
92.5915
0.0582682
0.6023
0.148673
0.0577241
0.0707048
0.0516823
0.0595411
0.0708509
0.0722348
2.58478
0.118966
0.0579108
65.6542
0.0576984
0.0576474
0.0462199
0.057771
0.0577228
0.0576972
0.0576984
48.2082
0.0576782
0.0576613
0.0577257
0.0576984
0.057765
0.057661
0.0577931
0.0578179
0.131669
0.0576983
0.0456518
0.0576474
0.0588413
0.0576831
0.0576941
18.0798
0.0577655
0.0576651
0.188537
0.039058
0.0576128
0.057625
0.055544
0.152426
128.333
0.0605008
0.0576984
63.4681
0.0577046
0.0577534
0.0577127
0.245076
0.0576943
0.0576711
0.0576639
13.8224
0.068497
0.0576797
0.0710216
0.0577041
0.129461
0.0751401
0.0577345
0.0645863
0.0576985
0.0576574
0.0576829
0.0576746
0.0576982
0.0576642
0.0720339
0.0576917
0.0577202
0.0591403
0.128443
12.5685
0.0576472
0.0585265
0.0740501
0.0591692
1.57827
0.177147
0.671298
0.0598503
0.0580202
0.0719336
0.0576381
0.0587612
0.0576618
25.0416
0.193386
0.0720555
0.16097
0.111084
0.0576479
0.0576986
0.102793
0.0576982
0.0576147
0.089863
0.0702757
0.0576704
0.0576924
0.0562932
0.0576412
0.0576591
0.0577036
0.0576984
0.057616
0.133033
0.0576903
0.0576531
0.0576478
0.0577144
0.0576984
0.0643568
0.11549
0.0743857
0.0576607
0.0699008
0.0961266
0.0576173
0.0576747
0.0576618
35.7106
0.162777
0.696011
0.057717
263.621
0.0577031
0.0576587
0.301002
0.191112
0.0577331
0.0578305
0.0576984
0.0576993
0.0577432
0.0576109
0.0576661
0.0576925
0.16732
1.31595
0.114438
0.0577298
0.0577254
306.116
0.0576517
69.8348
0.057681
0.0693443
0.0576385
0.0576984
0.0576661
40.3911
0.500865
0.0573062
0.0573758
0.0576983
0.0576984
0.0346105
0.0576487
0.0999572
0.0702899
44.742
0.180007
0.0576984
79.1388
0.0576984
0.0576588
0.0576984
0.0576984
0.0576816
0.0576897
0.135898
0.0576658
0.0864862
0.0576984
0.0580121
0.057727
1567.25
0.057682
0.057694
985.031
0.138693
0.0576831
0.0577459
0.057703
0.0576669
0.568181
0.0576195
0.138475
0.0576978
0.0576838
0.243522
31.4183
0.057738
0.0562282
0.0576753
0.0593487
0.0576984
0.0576984
240.473
0.0576826
0.0576984
0.0781925
0.0576984
0.0576421
0.0576048
0.0576986
0.057899
0.0945951
0.0576619
0.0583912
0.284817
56.1523
1844.64
0.0576985
0.0576649
11.6486
0.0576779
0.0581261
1005.79
0.0576366
1825.8
1576.56
889.07
0.145777
0.0576879
0.0577687
0.0576912
0.0576984
0.0577598
0.162063
0.0576644
0.172109
0.0576303
48.6903
0.161234
0.0577147
782.24
0.0576581
0.0577607
0.0629833
8.60162
0.119467
0.0576984
19.7007
0.057752
0.0576984
0.057674
0.0577915
0.0578192
0.0576984
379.112
0.156618
0.0584258
0.0576523
0.058512
0.0576984
152.019
0.0576984
28.8258
0.0576612
0.0576984
0.0574351
0.0722115
0.0576547
33.5847
410.441
0.0577684
0.0577754
0.0576914
16.8641
0.0578078
0.0576941
0.0576804
44.2973
0.0576908
0.0576984
0.057665
0.0546694
143.041
215.746
442.933
1.37508
162.004
0.0577027
0.0576684
0.0578953
7.65756
0.0576895
0.057673
12.8735
0.0644596
0.457488
0.0577053
0.0576117
0.154395
0.168746
402.808
0.0576984
0.0576902
90.3826
1.01561
0.142815
47.6661
0.557057
0.0576955
0.0577332
52.8133
0.0576752
0.0576881
0.0716162
74.8054
0.0627003
332.32
0.148539
122.313
0.0577075
0.376344
28.9887
0.0576899
0.0576832
86.0752
0.0578026
0.0576917
0.0576823
0.0576917
0.0587842
0.111439
0.0579791
2968.66
0.0576724
0.0576984
0.0576886
0.0576352
0.0669712
0.341148
0.057706
0.0576245
0.0576766
3.48163
287.604
0.0576106
0.0576869
0.0563081
0.0576383
0.0595486
0.0576955
0.0576996
357.171
0.0582973
439.206
0.0576984
11.231
0.0576863
1.38895
1.35208
24.8571
0.0576544
0.0590008
2.88858
0.0576327
0.0576851
0.0577043
0.0576925
0.0446116
0.0206353
3.93356
129.39
15.2376
250.491
0.0699814
357.991
0.0709341
0.074546
0.057626
0.057609
0.0710961
0.0576246
0.0682021
0.0576582
0.0579415
0.057725
0.0713811
0.0576852
0.0589692
0.0727683
0.0576403
0.0576984
0.0577348
0.0576836
0.0576445
0.0576984
0.205836
0.0577028
0.0577083
23.1415
0.0576622
132.904
177.621
0.158401
72.5703
0.160692
198.376
0.145647
0.0576984
0.0576984
0.0576549
0.177743
0.0576984
478.695
0.057675
0.0577363
0.0576791
0.0577044
0.05757
0.0576847
0.0576422
0.0568838
0.0577042
0.137646
0.0575773
0.0576871
97.24
0.0583021
0.0576448
512.94
0.190007
0.0576513
0.0576558
0.057657
0.114872
110.585
61.418
254.765
84.1662
0.0576986
0.057665
0.0576697
0.057647
0.0576557
0.0576614
0.0698143
0.0576443
0.0576697
0.0576571
0.0578877
0.0577312
0.0577062
0.0577774
0.0576771
6.19005
7.34069
35.5067
0.375663
0.331003
0.0575996
0.0577121
85.1324
0.0564828
0.0576543
63.1492
0.0705399
0.0577213
0.0577447
0.0853938
36.8313
0.628471
0.0576238
0.0576984
0.0726095
97.7638
0.0576984
0.0576335
0.0576984
0.287266
24.5908
0.058145
0.0751152
0.0576657
0.0576986
0.0576135
0.0576935
0.0576952
0.0576944
0.0576887
0.0576217
0.0577066
0.0577068
0.0576835
0.0576869
0.0576772
0.0343733
0.0576047
0.328206
0.684715
109.986
6.2702
0.159456
0.149352
0.501574
0.344648
0.0576984
0.0577018
0.0577159
0.0490953
0.292214
0.184924
0.0251474
111.653
578.737
1.88443
7.3847
0.0695098
0.0436159
0.0581442
185.78
0.488953
9.53055
0.05761
0.0576744
0.057744
0.0576835
0.165474
0.0918858
0.139318
6.38597
0.0578661
0.0576563
0.0576685
0.057643
0.753524
0.0685479
0.0576308
0.0576635
0.113262
0.0417159
0.0576519
0.0577119
0.0577611
0.057725
0.0576983
0.0576266
0.155321
0.0576327
0.0576983
0.0574877
54.7218
0.0580735
0.0589964
0.0596315
0.0576517
3.06558
0.0578064
0.0579136
0.0577239
0.0507324
150.881
17.9505
0.0578169
0.194667
0.0577035
0.0577314
8.58869
0.0936951
884.597
157.047
0.119034
0.0576984
4.01826
0.0576077
0.0576984
0.0576984
0.0578007
0.0576984
1036.56
0.057682
0.149865
1.69053
0.0577716
0.057699
0.0843214
0.0581638
0.137833
0.0576984
0.114504
0.0576984
0.0578246
4.32858
0.0576227
0.0576761
371.531
0.0576868
0.0576247
0.0576869
223.732
19.8182
0.0576494
1.64636
0.0576467
0.0576917
0.0576572
0.0576986
0.0576573
0.0577238
0.0576803
0.0576984
0.0576554
0.0577227
0.170068
0.0576526
0.037413
0.057643
0.0966977
0.0713387
0.127656
185.076
0.0576984
0.0576984
0.0576575
12.3942
92.0055
0.0576984
0.0577152
214.99
40.5833
0.0374034
1072.72
0.834009
0.057743
0.178516
0.176771
0.0580004
0.0576548
0.0578006
0.057939
0.135288
0.0571582
65.1216
0.0576984
0.0576869
1183.18
113.292
0.0579366
58.4679
308.603
0.0577204
0.0577787
0.0748827
0.0576507
462.911
0.0730596
0.0717303
0.0752835
0.0577144
0.0577025
753.438
0.111132
0.0578214
0.0577061
0.0576756
0.0576582
0.0576527
0.0576562
0.167049
997.517
0.163323
0.0576983
0.0577035
0.0576984
0.0577787
0.0580554
0.0577197
0.0578126
0.0585317
0.655189
0.0577003
0.189502
0.170862
0.0576811
0.0577797
0.0576801
544.411
0.057698
0.0587724
0.264086
0.143345
0.0578111
0.0576984
0.0577109
0.0576788
0.0580662
257.638
0.0585235
0.0577586
129.544
21.3373
0.0576863
574.354
0.0575755
0.0503309
0.0597443
0.0577054
0.0902042
0.0576223
0.0575792
0.0576687
0.0579599
0.0580713
0.0579201
0.0760155
0.0581424
0.0758656
0.0580406
0.0400695
0.058428
0.0576217
0.0580326
0.0578058
0.0779174
0.184998
608.22
0.058927
0.0595877
0.0706921
0.057647
0.0763175
0.12477
2.94743
0.0745179
0.159059
0.0577662
0.0819331
0.274337
0.0576565
940.905
285.263
0.419119
0.0738025
0.0712611
0.234637
0.0576584
0.0577189
0.0339384
67.2705
0.0576775
0.0577279
0.252565
0.0578897
0.0577699
0.0753049
8.8837
1700.85
0.0576963
0.21328
0.0577492
0.21302
0.0577863
0.0576322
0.101514
0.0576839
0.0772308
6.72967
0.0350487
0.0743681
166.944
0.0582677
0.405196
0.0577263
0.145384
7.42441
0.0671492
0.0578099
0.0559053
206.626
72.4732
5.78627
0.0578003
0.057706
71.7403
0.0575672
0.0575849
14.2591
7.24976
0.0741295
0.0577203
0.0576862
0.0576742
0.143464
0.0577691
0.0576899
0.0576982
0.170094
0.0576242
0.0576984
0.0619295
0.0801565
0.0577141
0.0577809
93.7784
44.552
0.057637
0.0576031
0.111601
0.148553
0.0576796
0.240462
0.0722011
0.0789455
1.84804
0.0576664
0.0652077
0.069722
0.0576384
0.0577376
2.1698
0.0851118
726.373
0.0576798
257.909
1.40628
0.261469
0.206288
0.0315686
1.41877
2.84511
86.388
0.209097
27.8504
0.153177
0.0576676
0.0579211
0.153387
0.05765
0.0577046
0.166022
0.473014
0.0577232
0.0578081
0.0576801
0.0576821
0.0721876
0.167894
0.0576642
36.888
0.0576435
0.0577001
4.97157
0.133203
44.4111
0.0581162
0.116306
202.518
1.75975
77.7513
0.0576987
0.057611
0.0576463
0.0577108
0.0701396
0.0780948
0.0576161
0.0576672
35.5768
142.911
0.0757319
365.798
0.166744
423.149
0.0709349
125.865
0.0578455
83.0257
0.0709185
0.166839
0.0577548
0.0576984
934.453
0.0576984
0.0576985
0.0577115
0.0576984
0.0576984
0.0691202
0.166587
0.0391006
0.0576984
251.151
371.827
0.0689691
0.0576982
0.0576688
0.0576584
0.0576423
0.051397
0.0576563
0.114953
0.116539
0.0576985
0.0576984
241.384
174.782
0.0906282
0.136636
0.0577895
0.0745794
0.147549
0.0576984
0.0576984
0.0576507
307.297
0.0576981
0.0576984
0.0576984
0.0576975
0.0707353
0.0577
0.0581853
239.025
0.0634633
0.0810107
0.0576082
0.157392
0.144473
206.586
0.0262573
0.0576345
752.925
0.0576433
0.0576986
0.0576955
0.127248
0.0576929
0.0716796
0.142014
0.0576984
0.0576983
0.176016
0.0576987
0.0576978
394.946
0.139124
0.0583976
0.13701
0.0576261
0.0576984
0.0576984
0.0576984
0.0576965
716.874
0.0576751
0.0959174
0.0703176
0.0576984
0.0576984
1079.28
0.0576715
0.170529
0.0701227
0.0576984
0.0576983
0.0576986
0.0576906
0.0684997
0.160368
0.0576983
0.0712298
0.154845
0.0576981
0.0576984
0.0696226
0.0576869
0.0576985
0.0699888
0.0691691
0.0576984
0.0576986
13.7324
0.172229
0.0708263
0.17351
0.142636
0.0593615
0.136517
0.0576962
0.0576983
0.0576747
0.0576926
0.0576984
0.0583825
0.0190086
0.0576986
0.069484
43.7566
0.0707292
0.0578225
0.057671
8.67398
8.81234
0.0700404
28.6304
0.0576983
106.375
0.0576424
0.0576327
0.0576984
0.0576885
0.184103
0.0576986
0.143292
0.0576764
0.0576984
0.0576984
0.0576921
0.0708263
0.0684785
0.168075
0.109917
0.0576984
0.0576984
81.5561
60.6328
0.0576984
0.0576264
11.8608
0.102624
0.0544588
0.135991
0.0568502
0.0576987
0.0576984
0.0576984
0.0576982
0.0689069
0.129857
0.122902
0.0576984
0.0576947
0.07022
0.0578809
0.171651
0.0576442
0.057698
0.0576844
0.0713497
0.0693797
0.0711003
0.0576984
0.0682824
0.1455
0.0576751
0.0576991
0.0571464
0.148534
0.0577244
0.0576984
0.0576706
0.0577674
0.0576984
0.150566
0.0735667
0.0576986
0.0576984
0.121845
0.0577962
0.0576984
0.200873
0.198558
0.0719491
0.0576984
0.0576984
0.071668
0.0576984
0.0576984
0.0576983
0.0576924
0.0576984
0.0576984
0.0576984
0.0576984
5.75146
0.0576984
0.0576984
0.0550464
28.7991
0.155213
263.426
386.617
0.0577814
0.199757
25.0677
1.28471
0.0699399
106.368
0.0576724
0.152768
3.96299
0.0365975
16.3515
0.0717224
69.2523
0.493202
0.100749
19.4042
0.0577535
0.0576984
0.223733
0.0576918
13.5237
10.6055
1353.52
0.104689
14.7349
8.39102
185.877
11.1744
577.345
0.0575746
0.0576984
0.057645
3226.19
1.4609
0.0576321
0.0704224
0.0576579
0.0576986
0.0575939
0.152077
0.0580199
0.0709652
0.057614
0.057632
0.0583751
0.0577154
0.246458
0.0698031
0.0576438
0.630027
1279.13
0.158455
0.057721
0.162487
574.434
0.0950869
0.0679644
0.057758
0.0576283
0.0691627
0.138914
0.0721764
0.0576359
0.0716122
799.043
0.0577862
0.0577093
0.127232
0.057679
1479.82
0.0688139
0.0576984
0.144132
0.0620775
0.0577367
0.0719985
0.0714626
0.159335
512.971
9.8502
0.0577441
0.152597
0.0779461
0.057624
0.0576681
0.0763708
0.205988
0.0576979
0.057653
0.057698
0.187615
0.0725638
0.146452
38.1027
220.865
337.632
0.120791
0.168627
0.0576522
0.0577166
0.0576359
19.0549
0.0576168
0.0719924
0.254304
0.0642338
333.657
66.9983
1053.03
0.0576984
274.044
263.313
0.0576651
0.0577415
0.075539
0.0581827
0.0576869
0.0576065
284.924
0.0577111
0.0579564
0.057784
0.0580399
203.443
0.261548
0.0576233
0.0576353
0.160263
0.0576984
0.0576949
0.292576
0.163296
0.0703221
0.512321
0.0576081
0.0707782
42.8822
0.0577446
0.0576941
0.161154
0.0700631
0.103649
0.0576971
269.892
0.162351
0.152405
0.0570817
7.39424
0.0583422
0.0577564
1229.99
0.0694113
0.0576725
0.0576965
0.0581531
0.0577157
0.0574079
0.0576984
0.113504
0.0576933
0.0577229
0.0580631
0.0611846
0.0577792
0.0577794
0.0577035
0.0577501
163.952
0.0582381
0.873577
0.175623
0.0576984
0.153221
0.423733
0.282574
0.410906
0.298447
111.862
1.52539
116.906
0.0574939
0.0784314
0.0576982
0.152992
0.0577119
0.057698
8.43547
0.0576839
110.342
424.097
0.0597988
0.0576474
0.0576751
0.0577826
6.7076
0.169462
0.0577319
5.33762
0.059099
0.0576982
2.98749
0.0576427
544.252
269.562
0.0576979
0.0576981
0.0577031
0.0586127
0.0576865
46.627
0.121266
32.5055
0.0576976
1094.52
0.0576995
0.325467
699.738
229.989
936.912
0.237052
0.0574239
0.0576983
128.716
169.674
0.0576984
0.0581407
661.662
0.0576995
0.0576984
0.0576984
67.3304
0.155871
0.0576458
0.057637
0.0576673
12.8115
0.415091
0.0576751
0.0576921
0.0577449
0.0772017
0.0577018
0.0580496
0.058031
0.445244
736.438
0.65446
0.0578353
0.378528
9.14081
0.057693
0.0576444
0.0646681
0.0733603
0.0581655
0.0576887
81.7145
1.15746
4.46297
0.0576989
393.364
0.0705445
0.0576984
608.425
2.71199
0.75843
0.895025
0.15377
0.0576986
0.0576984
0.057624
0.0576749
0.0609659
0.0579085
93.677
0.0576596
0.299621
448.218
0.0576983
0.0593293
0.0577787
0.0576984
0.113066
0.0576644
6.3685
0.0576984
0.0576984
0.0592181
1.50512
160.699
0.739309
0.057698
0.570599
0.0577501
0.0576795
0.519037
0.308684
0.0577152
11.8941
7.68442
0.0576346
8.48467
2.36322
1.11753
0.150396
104.934
0.394674
0.118242
0.265953
0.0579982
0.684538
0.0576984
0.0576408
189.674
0.650117
43.5161
127.84
70.0287
15.0995
0.0576984
0.0578074
653.159
0.489928
12.9202
1.21888
2.84401
6.13349
46.1357
45.7713
275.104
0.0839989
54.7472
708.802
0.0678887
638.78
127.794
0.0279799
0.0702716
0.141776
0.058417
61.4259
0.0725186
34.3841
516.409
0.0576986
179.541
0.0576984
0.0635631
0.386662
0.06204
3.55358
2.34948
0.0417374
0.135184
0.0577838
0.0576774
0.149354
78.89
0.0576983
0.368046
0.0574587
0.0577153
0.0619663
0.0694276
0.0576856
0.0576984
0.0576984
0.0575615
0.11462
0.0205841
0.0577086
0.0576267
0.0575655
552.287
0.0576984
0.0578411
0.0582475
0.0576984
16.4367
0.0543521
0.0576455
0.0577568
1126.6
17.6801
0.061505
8.79381