/*--------------------------------*- C++ -*----------------------------------*\
| =========                 |                                                 |
| \\      /  F ield         | OpenFOAM: The Open Source CFD Toolbox           |
|  \\    /   O peration     | Version:  2312                                  |
|   \\  /    A nd           | Website:  www.openfoam.com                      |
|    \\/     M anipulation  |                                                 |
\*---------------------------------------------------------------------------*/
FoamFile
{
    version     2.0;
    format      ascii;
    arch        "LSB;label=32;scalar=64";
    class       volScalarField;
    location    "0.35";
    object      k;
}
// * * * * * * * * * * * * * * * * * * * * * * * * * * * * * * * * * * * * * //

dimensions      [0 2 -2 0 0 0 0];

internalField   nonuniform List<scalar> 
32842
(
0.0191705
0.019167
0.0191646
0.0191644
0.0280396
0.0191644
818.454
429.998
0.0191644
0.0191643
45.4024
76.4576
0.019145
0.0191644
0.019152
0.0191729
0.0191576
0.0191644
0.0191803
0.0277667
0.0290521
0.0294298
0.0273887
0.0191646
0.0273998
0.0191644
0.0191644
0.0246572
0.931136
0.0191664
102.283
0.921593
139.944
0.0191542
303.829
765.418
0.0306787
0.0192188
0.0191531
0.0191662
0.0191645
0.028951
0.0191644
0.0191644
0.860483
0.0191604
127.598
0.0191431
0.0286082
0.530553
139.893
0.0191644
0.933995
2.08993
0.0191646
0.120596
0.0191644
5.33375
0.0191645
0.0191644
264.983
0.933436
0.93367
0.029068
0.0191554
120.459
0.0191645
0.955829
0.926408
0.0192351
0.0243839
25.8109
0.927551
0.0191644
0.0191644
0.0190663
0.215938
0.0191644
0.930741
87.0266
0.0279257
0.0191644
0.0191644
0.936219
0.954078
0.0191644
0.0191644
0.0873585
0.569479
0.0191644
0.0280362
0.0284988
100.048
0.0191616
0.0191644
0.0191543
0.928598
0.0191551
0.940609
0.0191644
0.0191644
0.0345573
0.0192533
25.2059
0.92815
0.923008
17.9053
0.018553
0.913761
0.0191838
0.0191644
0.0191642
76.4307
0.0191644
0.0192439
0.0287484
0.936345
23.6197
0.0192367
0.0191524
0.0191638
0.0191644
0.0543009
0.0191646
0.017979
0.931429
0.908163
0.0191541
123.695
0.0191646
0.0191644
0.0190067
0.0388573
0.899735
0.0389985
0.0191808
0.0322536
2.8071
0.0191534
0.0191698
0.929945
0.0191598
0.933797
1.65113
0.0191632
0.019162
497.744
0.0191649
0.0191644
0.0191598
0.0197502
0.832885
0.0262588
111.036
0.0191627
0.0191644
0.0191644
0.019165
0.0191756
0.0191644
0.0191725
0.0191644
0.0272447
0.0191644
0.0191532
0.019157
0.0191644
0.0191554
0.0191918
76.7588
4.84084
0.0345408
36.0442
0.0191644
0.029289
31.1136
0.0191482
0.0192775
0.0191644
0.0191642
0.0262783
0.0191567
0.0191562
0.0191644
0.936841
0.0191568
0.922699
0.0191617
0.019154
0.0191467
0.0191494
0.473789
0.924278
0.0191644
0.926047
0.0191431
0.0191445
0.0191428
0.927306
0.0191635
0.0191462
0.0192299
0.716271
86.7634
15.8325
0.0618317
0.0191592
0.0290503
0.918223
0.0191637
0.0191596
0.0194763
49.1609
45.1225
0.0191588
0.0191644
0.0191636
0.0191567
0.0191709
0.0191676
0.273314
0.0191644
0.0191644
0.0191722
0.0338282
0.915556
0.0191645
0.930534
0.0191538
132.812
0.0191643
0.0191643
0.019124
0.0191644
81.6514
0.0277578
0.0280632
0.160139
0.019154
0.93367
0.621631
0.0191605
0.0191667
100.179
0.0191458
0.0191653
0.931237
0.0191644
0.0191644
0.019163
0.0191644
0.0191644
0.0191727
0.932138
0.019135
0.0191644
0.0191542
39.7625
0.0191596
0.0191555
0.0191644
0.0191644
0.0191644
0.0191645
0.92114
0.0191644
0.0191643
0.0191444
0.0191962
0.0191646
0.0191644
0.938783
0.0191644
0.912556
0.0191644
14.7217
0.01917
0.033162
0.0191644
0.0191677
0.0191644
121.751
159.696
0.0191644
0.0191688
0.0925586
76.5632
0.0191644
0.0290386
0.0191644
617.313
0.0191645
0.924572
99.4708
0.543499
0.0186636
0.923159
0.0191642
0.0191314
0.0271014
117.955
0.0191646
0.0191611
0.0191638
0.0191644
0.0191644
0.0191644
0.0191644
0.0191375
0.930715
0.0191626
0.0191644
0.935943
0.019164
0.0191644
0.0191608
0.0191602
62.3036
0.0191638
0.0191672
0.0191688
0.37477
0.0191629
0.022241
0.0191646
0.019162
0.0191679
0.0191646
0.0191535
0.0191644
0.0191685
0.941334
0.0191644
0.0191644
0.0191483
0.0191644
0.948222
0.928576
0.0191644
0.0191574
0.0191505
0.0191697
0.0227263
0.0191644
0.929588
0.0191644
0.0191644
0.919529
0.932556
0.92954
0.0193311
78.6388
0.0191718
0.928336
0.0191644
0.0191301
0.0313675
0.0191651
0.0191639
0.0191454
0.0191644
0.0191644
0.019152
3.31633
0.0191644
0.0191613
0.0191644
0.0191644
0.287585
0.0267745
0.0191644
802.962
0.0191541
0.0365789
0.0191644
0.91295
0.0330225
0.0191644
0.0107755
0.0273683
0.0191624
0.930068
0.940532
0.0191607
0.0191563
0.0191646
0.0191644
0.0191644
0.0191644
0.0191556
0.0191594
0.0191514
0.0191601
0.0191644
0.0191695
0.0191644
0.0191636
0.0191741
0.0191722
0.0191654
27.2113
0.0191644
0.0191606
0.0191874
72.2304
0.019182
0.0191517
0.0353598
0.0191644
0.030324
0.887521
0.0191533
0.0191644
0.0191619
0.0191562
0.0191657
0.0191667
0.0191663
0.0191808
1122.1
0.0191868
0.922662
0.0191644
0.0301049
383.011
0.0191644
0.019165
0.0191644
0.0182636
0.0191645
0.0190925
0.0191644
0.0191644
0.935279
0.0278754
0.931327
0.0191578
657.303
39.8336
0.934981
0.0289624
3.14973
0.029729
0.936567
0.0191625
0.0191555
0.0231937
0.0191646
0.0265357
4.30577
0.0191646
0.0191389
0.0192361
111.576
0.0260298
0.01915
0.0191603
0.028343
0.0191524
0.0192525
0.0191596
0.0296221
0.0191644
0.0191645
0.0191644
0.0191529
0.0191618
0.934901
0.0191496
0.0192109
0.0191644
0.0297612
0.028153
0.0191644
0.0191556
0.935861
0.93214
0.0191644
0.0191645
0.0191644
0.0191644
0.0279507
0.0191534
0.58233
0.935573
0.0191634
0.0191646
0.93799
0.0192848
0.0191644
0.0312817
0.0192598
0.0234252
0.0194795
0.922803
0.0291947
0.922204
0.932051
0.0186379
0.0191352
0.0308065
61.6878
0.0191575
0.932112
0.0328522
0.940396
0.0260546
0.0191644
53.4723
0.0314228
0.0191529
0.930273
0.0191358
0.90907
0.0191555
0.0191645
0.0333956
0.0361551
70.9758
498.93
9.05776
33.8468
47.9118
30.5309
103.547
0.939047
0.019156
0.0191581
0.0191571
0.938431
3.31212
0.944285
1.3804
0.0191881
0.0191633
0.0262226
2.18453
0.0191647
353.946
8.02416
0.0192076
85.4275
0.0143116
22.5828
0.0191589
0.0191644
0.0191773
0.93275
69.1386
0.0191644
0.0299075
0.019172
0.406483
0.923144
0.0191623
0.0191668
0.0191609
0.0191644
0.476427
0.466684
0.0191644
0.0191644
0.0191788
0.916428
0.882453
0.942536
0.0191672
0.0191636
0.0191644
77.7715
0.940398
0.930058
35.7094
0.924322
0.0191644
25.151
0.926149
0.019157
144.646
0.0191644
0.0280037
0.0191644
0.0191685
0.0281684
0.0273844
0.0191644
0.0191576
0.0191619
0.019174
0.939793
0.0293038
0.0191645
0.0191679
82.1444
0.0191644
0.0477304
58.1055
0.950852
0.0191572
0.0191641
46.1734
55.7892
236.588
0.0191534
54.9776
0.941095
0.759661
0.0193537
0.776316
0.0191645
0.0191644
0.0191646
0.0191644
0.0191644
0.77379
0.0283869
0.0191556
0.0191644
0.0191608
0.0191644
0.0191306
0.0191601
0.0191796
0.309793
0.938894
0.0191836
0.0191644
0.392779
0.851169
5.08638
0.0191383
0.395883
0.0191644
0.0191644
0.0191988
57.5942
0.934706
0.0191644
0.0304012
0.0191644
1.58494
0.0191644
0.0191644
0.0191645
0.0191646
0.489417
0.0191644
0.0191644
13.4672
1.42736
0.0189522
0.0191635
0.0191644
0.932991
0.94944
0.0191644
0.926387
0.0277235
0.0191644
0.0191644
149.464
148.925
0.0191644
0.93876
158.475
0.0191858
0.414302
0.0191608
0.0191644
0.0318961
0.0318133
0.0202144
0.0191678
141.159
0.0191644
34.553
0.0191644
0.0191644
58.4938
135.259
4.29355
0.819857
0.0191644
0.0191632
0.02673
0.02751
100.562
50.7558
132.782
173.195
0.0191616
0.019272
140.883
0.0191644
2.62341
0.0191608
0.0192194
0.952562
51.2419
0.019161
0.0191841
0.0191644
0.0191563
0.0191548
0.0191644
0.0191687
0.0191644
0.0191644
0.935969
0.0191644
0.0191826
0.0191644
0.944646
0.0191641
0.019142
0.0191642
0.896939
0.0191644
0.0191512
0.0190115
0.0191413
0.0191537
0.0191645
0.0196414
0.0191716
0.0191527
0.0191628
0.0191541
0.00755646
0.0191576
0.0315094
0.0228453
0.0296751
0.0191644
0.0318101
0.0373951
0.91477
0.0191508
0.0191718
0.0306799
0.499196
0.0191644
0.906748
0.0291288
0.0191644
0.0191644
0.0194442
0.0191633
0.0191722
0.923481
0.0191644
0.0191631
0.0191564
0.030289
0.902941
0.0191587
0.0315211
0.0191644
0.026686
78.378
115.43
0.0286317
0.0191519
0.936725
0.0191614
0.0191644
0.0191508
0.0191673
0.0192311
0.0191332
0.408583
0.0191644
0.0193586
0.933604
0.0320703
0.0191594
0.0192201
0.0191644
0.926795
0.0380716
0.93524
0.0191778
0.931431
0.917961
0.028835
0.0191646
0.0261967
0.0191573
0.0297043
0.0191492
0.0191581
0.0288049
112.275
0.909998
0.0191574
165.081
0.0191605
0.909528
0.0191806
0.0191644
0.0191594
0.0191644
0.0191422
0.0191978
0.0191533
0.0191628
0.0191644
0.0191591
0.0191586
0.019164
0.938305
0.0193166
0.36889
0.0191624
0.0191686
0.0293462
13.6447
0.0191625
0.0191616
0.0288406
0.0191639
0.0192369
0.0191636
0.0333171
0.952769
0.0191644
0.0191644
0.0192075
0.019161
0.0191644
0.0191794
0.0191591
0.0191644
814.94
0.0191488
65.1506
0.0191722
0.0191572
0.0191405
0.0191652
0.0286491
0.0191553
0.0191644
0.0191644
0.0191593
0.919794
0.0191644
0.019188
0.934221
0.0191578
0.928519
0.0191634
188.836
0.0191419
0.0191504
0.944167
96.4003
0.0190987
0.0191833
85.5932
0.0325012
0.0191426
0.0191596
0.0191644
0.0191565
0.019157
0.921615
7.56608
0.915997
0.0191644
0.927655
0.0191542
0.0191568
0.019169
0.0289762
0.0229239
0.0191615
0.0191749
0.0191644
0.0191748
0.0192111
0.0191644
0.0191567
0.0191586
0.0191657
0.137674
0.0322024
0.0191644
0.534316
1.01397
0.0191397
0.0129405
0.141271
0.0191644
0.0191633
0.0191547
0.904188
0.0191644
0.0191644
0.922021
0.0303414
0.0191623
0.0191644
0.0191644
0.01916
0.0215287
0.764848
0.0191644
0.0191495
0.929412
0.0191667
0.0191634
4.64248
0.0191582
0.0191644
0.0191646
0.0191485
0.929725
0.0191712
0.0191284
0.0191644
0.0191567
0.0317308
0.0191644
0.929342
0.0280746
147.387
0.0191644
0.0191644
0.019146
0.0191595
0.0191752
0.0191644
0.164713
36.6211
0.0258749
0.115824
0.0191644
0.0268654
0.0191644
0.0191644
0.0191613
0.0191644
0.0191609
0.0191644
0.0191644
0.0191483
0.0191633
0.0191644
49.3301
0.0191631
0.946756
0.0191551
0.937556
0.939992
0.0191644
0.0272339
0.930265
97.5643
119.055
0.149528
0.0191588
0.0191646
0.0191644
0.0191646
0.731941
0.0191646
0.704953
0.570387
0.346296
0.536894
0.0230315
63.8964
0.0191644
9.48946
619.483
0.0191637
93.3868
0.0161134
0.019184
0.0191644
0.0191602
17.7382
0.019151
0.923806
0.0284141
247.196
0.909072
0.931276
0.0352134
0.0191644
0.0191554
0.0191736
0.0191441
0.0193286
0.0191644
0.0191543
0.0191729
1.65731
0.0311811
0.0191734
54.2972
0.019157
0.0191504
0.0191756
0.0191622
111.947
0.833916
0.0191469
0.019168
0.0191519
0.925717
0.429193
0.0191581
3.12961
0.904272
3.92074
0.0191685
0.0191637
86.8972
0.932653
0.0191394
0.0191547
0.0191636
0.0191589
46.7647
0.0191613
0.899843
0.0191475
0.0191644
0.0191505
0.0191656
0.0207352
10.4808
0.0191583
0.0191693
406.491
0.513314
0.926962
0.0191442
34.8076
91.119
0.0191497
0.0191645
0.0191627
0.942082
54.3141
0.0191528
0.028155
7.35957
0.0191517
0.0234173
7.31423
0.0191529
0.0191631
0.0191746
0.0191599
165.391
0.0191683
0.0191738
0.156299
37.7884
0.0241482
0.0232616
9.00776
0.0191643
133.635
0.904724
0.0191689
0.934837
0.943104
28.6331
3.41772
21.3973
20.521
0.0191546
216.623
0.927701
0.0141118
0.0191739
0.0191478
0.0191491
0.0191691
0.0191494
0.0191644
0.0191709
43.1395
0.0191644
0.0191644
0.136626
0.0191644
0.019159
138.932
0.498292
0.0327428
0.0219479
0.0191653
1.30721
177.935
0.920733
0.0191689
0.0191608
0.0191724
1.31172
94.4523
0.0331938
0.0191417
40.0505
0.0191505
5.19742
0.019554
0.0191633
1.27834
0.03097
0.0191847
0.327493
0.0191731
0.0191549
0.831631
105.895
60.2444
0.019168
0.0191536
0.0191644
0.0191659
0.0193049
0.0206118
13.4092
0.0191644
0.0191644
54.1761
0.0191524
0.0191576
0.687032
0.0191644
30.6669
41.3218
0.0191644
0.0191601
40.3252
11.1609
30.6247
19.5769
0.0191603
136.057
15.2791
0.0358119
100.86
0.00797672
0.932448
0.0191573
0.0191457
0.0187227
3.22187
0.0375072
0.019171
1.03826
0.934491
23.9417
0.90394
0.0191644
0.585276
2.9599
1.89924
0.0191644
0.0191475
20.5069
0.0191681
0.0192158
0.654799
0.0194115
149.322
11.7992
0.0465113
0.0221981
0.0191559
0.0191596
22.6503
1.03609
0.0191602
0.0192156
0.0191644
0.984087
0.0192245
1.09495
275.01
0.0192219
0.632962
49.719
0.232485
31.139
53.9521
132.835
0.019334
0.936158
41.0077
1.98632
0.0257447
0.0191644
34.8812
0.0191953
0.0190517
0.0391245
0.12654
0.92547
4.36018
0.0322781
0.919523
437.06
0.0191594
51.5828
0.0354717
0.918373
28.9266
0.0191866
0.532777
0.63263
52.608
0.0386047
0.0191645
0.938625
0.0191644
0.0288103
480.835
0.0274595
0.0192074
0.927876
1.06616
0.0191348
128.536
0.0191644
0.019154
0.0191607
0.0191734
12.4592
0.026913
0.0191644
0.655282
0.951685
0.0191911
0.0192032
35.7304
0.0191531
0.0191644
0.0191653
33.8663
18.8849
0.0191488
96.931
0.0191644
63.7171
0.616647
0.0195362
0.925827
11.2206
0.286391
0.0557843
0.0191737
1.82711
32.7097
27.5129
107.604
183.601
0.02912
21.2394
0.019161
118.421
0.0191584
0.924458
0.0191687
11.2899
0.0191527
0.0287538
0.0241998
42.3198
7.96588
0.0285249
0.0191559
119.292
0.924209
0.0191525
0.0191644
41.7407
0.49996
0.0191388
0.942338
0.0191684
7.73839
6.50141
0.942698
0.0191518
0.0191596
13.675
115.915
0.0282976
0.0191939
0.0324359
0.0191507
0.0191758
6.61772
0.0191644
0.912405
0.933397
0.0191772
0.59446
0.0191643
104.354
71.7905
0.0191644
0.0396435
17.9128
0.0191645
0.0191644
0.0191632
0.715473
0.0191615
0.0192339
0.019161
0.0322595
0.0192289
0.0193638
0.0191776
0.0191644
0.0191607
0.0191655
0.0191599
0.0191522
0.0191759
0.0191716
0.0191596
28.2528
0.0192389
0.0191649
125.011
0.0059173
0.0191523
0.019156
0.0192084
0.0191644
0.0309917
13.7164
0.0191351
0.0191818
0.0192673
0.0198547
0.861827
28.6712
0.0359206
0.911319
75.7284
0.0191667
0.0191655
134.065
87.2195
0.0282525
0.924121
0.0191694
0.0191264
71.0822
0.0285228
88.1988
0.0323095
0.0337736
0.0257425
0.0191375
86.6617
0.0191607
0.0191646
0.0331572
83.2209
191.65
0.913
70.7982
0.027473
0.0267786
0.0726618
0.0191137
72.77
33.3463
0.0271419
40.906
0.0191521
138.407
0.0191537
0.0213055
0.019184
8.45762
0.0191644
66.6273
0.0192015
0.0191606
0.0332364
12.2668
0.749769
0.01865
0.0191577
0.0191583
32.2778
0.019158
0.0191644
69.752
0.0191644
21.0009
0.0191295
0.0191851
0.0193451
0.0191776
0.0191742
0.0191644
18.9321
0.0191557
1.08409
0.882115
0.0191682
0.019158
0.0191813
0.0191581
0.0191855
0.0191532
56.2636
0.0191499
0.0191486
0.0191644
0.0336033
0.91403
0.0191623
0.0191959
0.0191643
86.342
0.0191449
0.019173
0.0191714
0.0191691
0.0191555
0.930402
0.0191698
0.0191662
0.0191651
94.041
0.0193559
0.019177
0.0191422
0.930884
0.019256
0.019331
0.229035
0.0191646
0.019275
0.0191967
9.37001
0.0191563
0.0191709
0.0177135
4.13776
34.5009
0.0191844
105.682
98.7974
85.2187
0.0191599
108.08
0.172171
0.0268646
0.0191742
91.3132
65.3983
0.0191433
0.0191646
0.0191784
0.0191434
59.3122
49.6985
0.0191519
0.0191644
0.0185304
0.0191818
0.0192413
97.446
0.0191648
107.154
125.135
0.0191645
0.0197431
0.720384
0.0198052
0.0148268
0.0191578
0.0191472
0.925476
0.0191564
98.983
0.0191412
0.0194269
0.019171
0.925794
0.0332751
0.0191531
0.0191552
0.0191644
0.0191569
0.01948
0.019164
34.2806
0.0191539
0.000106522
0.0538379
0.0411622
0.0191507
0.155554
0.952006
0.01916
9.9793
1.11106
0.0392112
0.0191739
0.0191565
0.932592
12.0979
0.826979
0.328421
0.0191705
0.0191644
0.0410109
0.0191462
3.42315
0.0191546
0.0191559
0.0307386
0.16768
0.0191601
0.0191644
46.1425
0.0191644
0.0191578
0.0191644
0.0191644
19.1007
0.898606
37.4317
0.0191644
0.0191538
0.019152
129.34
0.0195867
78.5604
104.661
0.0327578
0.0191557
0.0191603
0.0191619
0.0191644
105.556
107.065
0.0191644
0.0191542
0.0191583
0.0191558
0.927976
0.0191644
0.934358
0.0191644
0.937451
0.0303109
7.70966
0.0191645
0.019164
0.0191644
0.0192486
0.0191935
0.0192098
0.0191644
0.921799
0.0192901
2.14134
5.45756
2.90852
0.0191514
0.0191828
0.0191646
0.0191644
0.0193727
97.0069
0.0191644
0.0191479
0.0191558
0.948887
1.36708
80.4764
140.159
87.3024
0.920208
0.0416979
685.939
0.018997
0.926514
0.0190825
0.0191237
0.0361407
0.799365
62.7829
0.0641709
0.0191635
0.928724
81.036
0.0191644
0.0191644
0.019243
0.0191728
0.0191536
0.0191579
0.0285152
63.3894
0.0191645
37.1779
96.4692
0.0191643
0.0191644
0.0191644
0.0191488
0.0191644
0.019164
0.0191776
0.0319194
11.3472
0.019234
1.40639
25.3144
0.019306
4.12043
0.938154
0.0191607
0.0284663
0.380492
0.0201383
0.0287051
0.029586
14.523
0.929364
0.0192152
89.2838
0.0191644
0.0191525
0.0198492
0.0191804
0.0191693
0.0191632
0.0191645
31.2584
0.0191607
0.0191551
0.0191603
0.0191644
0.0191789
0.0191552
0.0191856
0.0191953
0.936849
0.0191644
0.615331
0.0191517
0.0197906
0.0191941
0.0191634
71.0512
0.0191809
0.0191572
0.904897
0.00369475
0.0191437
0.0191156
0.0104875
0.114081
18.7575
0.0197707
0.0191644
95.5481
0.0191649
0.0191761
0.0191667
0.539231
0.0191625
0.0191574
0.019156
13.5264
0.0266883
0.0191591
0.0286816
0.0191648
0.936581
0.0337464
0.0191716
0.112506
0.0191645
0.0191547
0.01916
0.0191589
0.0191644
0.0191555
0.0294844
0.0191629
0.0191685
0.0196367
0.931988
25.632
0.0191583
0.0193688
0.0326341
0.0194878
1.23901
0.924221
0.309291
0.019913
0.0192428
0.0292573
0.0191501
0.0195508
0.019155
17.7605
0.901154
0.0310176
0.929275
0.931061
0.0191518
0.0191646
0.938885
0.0191644
0.0191441
0.179636
0.0296039
0.019157
0.0191627
0.0160472
0.0191507
0.0191544
0.0191646
0.0191644
0.0191444
0.951455
0.0191622
0.0191539
0.0191517
0.0191672
0.0191644
0.31851
0.50028
0.0322272
0.0191551
0.0277238
0.0508653
0.0191451
0.0191589
0.0191555
36.7014
0.931083
8.67405
0.0191678
99.7075
0.0191652
0.0191546
0.825632
0.923734
0.0191716
0.019196
0.0191644
0.0191636
0.0191738
0.0191433
0.019156
0.019162
1.09888
0.644717
0.930495
0.0191707
0.0191697
139.337
0.0191527
54.1649
0.0191604
0.0274691
0.0191497
0.0191644
0.0191569
25.8961
0.750757
0.0189414
0.0189894
0.0191644
0.0191644
0.00755308
0.0191524
0.942104
0.0293625
42.4192
0.920979
0.0191644
61.0445
0.0191644
0.0191548
0.0191644
0.0191644
0.0191597
0.0191613
0.929372
0.0191566
0.0427735
0.0191644
0.0193211
0.0191704
466.251
0.0191598
0.0191623
121.356
0.930716
0.0191609
0.0191743
0.0191651
0.0191567
0.4821
0.0191458
0.928306
0.0191641
0.0191605
0.116429
37.1309
0.019173
0.0187821
0.0191585
0.0199331
0.0191644
0.0191644
151.194
0.0191601
0.0191644
0.0343533
0.0191644
0.0191507
0.0191419
0.0191645
0.0192116
0.0487144
0.0191557
0.0193321
4.66353
46.5903
182.955
0.0191645
0.0191566
61.6947
0.0191597
0.019377
149.391
0.0191492
73.9462
66.9052
122.13
0.923112
0.019161
0.0191797
0.0191619
0.0191644
0.0191777
0.917345
0.0191556
0.928403
0.0191481
13.9367
0.134049
0.0191672
119.208
0.0191542
0.0191781
0.0221092
48.8836
0.934811
0.0191644
10.3978
0.0191761
0.0191644
0.0191588
0.0191911
0.0191915
0.0191644
124.208
0.914849
0.019349
0.0191529
0.0193596
0.0191644
120.426
0.0191644
33.0295
0.0191557
0.0191644
0.0190479
0.0309999
0.0191536
50.4801
147.065
0.0191798
0.0191822
0.0191628
17.8805
0.0191894
0.0191634
0.0191595
20.4658
0.0191871
0.0191644
0.0191641
0.22806
72.793
33.135
137.304
5.06539
123.907
0.0191645
0.0191569
0.0192121
21.0354
0.0191622
0.0191578
20.8362
0.0244307
0.909113
0.0191651
0.0191435
0.935639
0.937855
138.507
0.0191644
0.0191615
41.4882
18.0159
0.104412
46.9678
0.71168
0.0191638
0.0191741
56.9187
0.0191586
0.019162
0.0303393
58.5687
0.0236515
84.4921
0.929311
72.1945
0.0191656
1.01903
32.8663
0.0191615
0.01916
70.0197
0.0191857
0.0191619
0.0191607
0.0191621
0.0194325
0.0572556
0.0192161
273.926
0.0191576
0.0191644
0.0191612
0.0190952
0.0255786
0.374961
0.0191652
0.0191465
0.0191591
7.88629
112.098
0.0191432
0.0191614
0.0183864
0.0191496
0.0199606
0.0191638
0.0191644
121.059
0.019313
98.9507
0.0191644
20.2707
0.0191612
4.82662
4.91206
32.1737
0.0191541
0.0194843
9.17119
0.0191482
0.0191613
0.0191648
0.0191627
0.00848056
0.0534355
10.5404
69.3722
22.0725
132.892
0.0284481
121.696
0.0298934
0.0319018
0.0191475
0.0191434
0.0315925
0.0191469
0.0269133
0.019155
0.0192248
0.0191701
0.0310121
0.019161
0.019479
0.0299657
0.0191509
0.0191644
0.0191721
0.0191603
0.0191513
0.0191644
0.912548
0.0191651
0.0191658
28.3122
0.019155
85.6013
100.041
0.929841
66.9295
0.928482
110.864
0.929656
0.0191644
0.0191644
0.0191537
0.917314
0.0191644
80.3493
0.0191583
0.019169
0.0191599
0.0191654
0.0191339
0.0191603
0.0191504
0.0188107
0.0191654
0.928908
0.0191355
0.0191618
99.248
0.0193127
0.0191512
88.6025
0.928439
0.0191533
0.0191541
0.0191548
0.947578
38.1425
42.3486
154.864
54.724
0.0191638
0.0191567
0.0191578
0.0191525
0.0191535
0.0191558
0.0286014
0.0191518
0.0191578
0.0191548
0.0192112
0.0191711
0.0191653
0.0191817
0.019181
11.0342
11.7647
39.2015
0.318205
0.767103
0.0191406
0.0191667
60.1107
0.0185195
0.0191541
53.7996
0.0283309
0.0191686
0.0191742
0.040979
16.9256
0.635342
0.0191462
0.0191644
0.0308745
54.5258
0.0191644
0.0191485
0.0191644
0.259819
50.6405
0.019269
0.0318564
0.0191566
0.0191645
0.0191446
0.0191622
0.0191627
0.0191625
0.0191613
0.0191461
0.019166
0.0191655
0.0191602
0.0191608
0.0191588
0.0693515
0.0191425
0.280192
3.00075
70.0531
14.8623
0.931476
0.939213
1.96881
2.02713
0.0191644
0.0191655
0.0191532
0.178297
0.893429
0.927381
0.0818264
58.8567
138.411
8.56537
18.5709
0.0277766
0.0113173
0.0192754
74.7712
0.356651
22.7764
0.0191434
0.0191581
0.0191747
0.0191604
0.904605
0.311176
0.109906
20.4893
0.0192159
0.019154
0.0191567
0.0191509
4.37931
0.0254095
0.0191485
0.0191555
0.943904
0.0107347
0.0191535
0.0191667
0.0192006
0.0191697
0.0191644
0.019147
0.922617
0.0191419
0.0191644
0.019112
59.7451
0.0192555
0.0180879
0.0195972
0.0191526
7.11384
0.0191884
0.0192646
0.0191694
0.0622762
20.7156
10.6661
0.0191909
2.23219
0.0191646
0.0191711
21.014
0.935698
104.642
46.1203
0.919788
0.0191644
18.9147
0.0191432
0.0191644
0.0191644
0.0191897
0.0191644
35.4521
0.0191601
0.599095
7.60613
0.0191804
0.019164
0.0386759
0.019277
0.936871
0.0191644
0.0676749
0.0191644
0.0191954
14.3681
0.0191461
0.0191584
143.746
0.0191612
0.0191468
0.0191608
150.418
21.7553
0.0191525
9.01381
0.0191519
0.0191619
0.0191542
0.0191646
0.0191538
0.0191693
0.0191592
0.0191644
0.0191535
0.0191778
0.152555
0.0191552
0.0082287
0.0191517
0.0516341
0.0291693
0.393544
103.353
0.0191644
0.0191644
0.019154
26.5185
120.936
0.0191644
0.0191695
163.446
53.8067
0.0547153
151.576
4.57307
0.0191737
0.910347
0.927198
0.0192375
0.0191533
0.0191872
0.0192544
0.933287
0.0188586
80.6523
0.0191644
0.0191614
73.6623
200.614
0.0192229
71.7729
176.508
0.0191695
0.0191834
0.0325061
0.0191525
153.087
0.0315001
0.0319348
0.0333431
0.0191671
0.0191644
70.3601
0.0662037
0.0192195
0.0191651
0.0191582
0.0191547
0.0191537
0.0191546
0.925007
65.3539
0.645384
0.0191644
0.0191645
0.0191644
0.0191821
0.0192471
0.0191684
0.0192289
0.0193697
1.1875
0.0191639
0.876935
0.935186
0.0191604
0.0191831
0.0191592
111.991
0.0191644
0.0193919
1.70691
0.947439
0.0191691
0.0191644
0.0191663
0.0191593
0.019254
80.6965
0.019369
0.0191776
14.0838
31.2037
0.0191584
133.587
0.0190676
0.00568264
0.0201584
0.0191651
0.947634
0.0191459
0.019136
0.0191566
0.019226
0.0192528
0.0192169
0.0350985
0.0192726
0.0271423
0.0192301
0.0364919
0.0193457
0.0191458
0.0192292
0.0191998
0.0355712
0.918099
141.448
0.0194269
0.0201986
0.0296294
0.0191522
0.0337203
0.92111
13.9935
0.0327778
0.579767
0.0191791
0.0386205
1.84493
0.0191546
98.9769
53.5036
2.92579
0.0320168
0.0297368
0.896101
0.0191542
0.0191816
0.00128246
90.7492
0.0192387
0.0191704
0.347899
0.0192429
0.0191799
0.0326008
6.41142
367.679
0.019163
0.854494
0.0191751
0.853491
0.0191908
0.0191482
0.907836
0.0191604
0.0341316
22.4932
0.0127344
0.0334055
85.3842
0.0193059
0.543548
0.0191704
0.948451
7.79904
0.0189357
0.0192185
0.0194059
52.7844
55.2222
12.9432
0.019212
0.0191793
55.4167
0.0191332
0.0191372
24.9021
16.0204
0.0314676
0.0191685
0.0191606
0.0191578
0.935917
0.0191798
0.0191614
0.0191644
0.418472
0.0191503
0.0191644
0.0153864
0.0376962
0.019167
0.0191825
71.5346
43.4607
0.0191657
0.0191416
0.877331
0.296009
0.0191607
0.828264
0.0332103
0.0357339
1.79895
0.0191561
0.146987
0.0287571
0.0191499
0.0191843
7.15673
0.033503
90.9648
0.0191591
187.254
1.73056
0.132489
0.896262
0.0575003
6.00714
9.07474
70.06
0.901539
33.1919
0.914518
0.0191563
0.0192643
0.93395
0.0191528
0.0191648
0.92988
0.870962
0.0191695
0.0191907
0.0191592
0.0191596
0.0303393
0.931232
0.0191555
8.39046
0.0191507
0.0191638
4.51347
0.928555
34.8122
0.0192669
0.957543
172.789
7.19684
81.7502
0.0191646
0.0191433
0.0191651
0.0191662
0.0286587
0.0336455
0.0191444
0.0191561
39.0949
35.1914
0.035232
205.337
0.928423
216.476
0.0295606
44.8459
0.0192402
55.246
0.0300587
0.934164
0.0192037
0.0191644
190.067
0.0191644
0.0191645
0.0191627
0.0191644
0.0191644
0.0271776
0.924181
0.00751905
0.0191644
167.679
167.403
0.0270394
0.0191644
0.0191575
0.0191543
0.0191508
0.209021
0.0191538
0.903993
0.91023
0.0191645
0.0191644
128.157
166.702
0.950625
0.935171
0.0192145
0.033199
0.937803
0.0191644
0.0191644
0.019149
200.335
0.0191644
0.0191644
0.0191644
0.0191642
0.0284433
0.0191793
0.0192845
160.764
0.0231392
0.0391724
0.0191194
0.925754
0.938484
94.0979
0.00512152
0.0191495
78.7768
0.0191515
0.0191646
0.0191642
0.949583
0.0191632
0.0291513
0.947811
0.0191644
0.0191644
0.929033
0.0191646
0.0191643
78.5597
0.94466
0.019338
0.94277
0.0191475
0.0191644
0.0191644
0.0191644
0.019164
83.0245
0.019159
0.924889
0.0282111
0.0191644
0.0191644
63.3405
0.0191739
0.893401
0.0282418
0.0191644
0.0191644
0.0191646
0.0191626
0.026753
0.929667
0.0191644
0.0288225
0.925147
0.0191644
0.0191644
0.027575
0.0191624
0.0191645
0.0278038
0.0272642
0.0191644
0.0191645
20.9464
0.923236
0.0285496
0.936049
0.936181
0.0195826
0.943835
0.0191639
0.0191644
0.0191589
0.0191631
0.0191644
0.0193416
0.48809
0.0191646
0.0276571
39.5335
0.0283324
0.0191973
0.0191581
9.08142
2.38348
0.0286707
16.2332
0.0191644
10.6021
0.0191514
0.0191491
0.0191644
0.019163
0.917958
0.0191646
0.938306
0.0191606
0.0191644
0.0191644
0.019163
0.0285736
0.0267149
0.923078
0.942647
0.0191644
0.0191644
32.6816
36.7728
0.0191644
0.0191476
13.2549
0.945439
0.0138279
0.931176
0.0170198
0.0191646
0.0191644
0.0191644
0.0191644
0.0270519
0.936913
0.945888
0.0191645
0.0191636
0.0279751
0.0192366
0.93036
0.0191513
0.0191643
0.0191602
0.0288741
0.027409
0.0287048
0.0191644
0.0265671
0.930148
0.0191587
0.0191636
0.0188614
0.936235
0.019174
0.0191644
0.0191569
0.0191794
0.0191644
0.938024
0.0306131
0.0191645
0.0191644
0.955404
0.019186
0.0191644
0.914595
0.913872
0.0294329
0.0191644
0.0191644
0.0292169
0.0191644
0.0191644
0.0191644
0.0191636
0.0191644
0.0191644
0.0191644
0.0191644
13.7974
0.0191644
0.0191644
0.0124283
37.8945
0.810334
163.723
114.94
0.019183
0.913845
31.4028
5.49538
0.0277506
70.0713
0.0191605
0.907744
11.1035
0.169466
26.0347
0.0298663
52.8621
0.576452
0.252561
27.6267
0.0191768
0.0191644
0.192826
0.019162
33.9177
24.1686
67.8401
0.616026
25.5292
21.7368
160.514
6.42144
164.078
0.0191349
0.0191644
0.0191518
282.504
5.96973
0.0191481
0.028422
0.0191544
0.0191646
0.0191394
0.938042
0.0192414
0.02863
0.019144
0.0191481
0.0193275
0.0191675
1.42323
0.0283705
0.0191517
1.33762
123.056
0.917577
0.0191686
0.917833
191.396
0.945556
0.0285299
0.0191774
0.0191472
0.0290833
0.102058
0.0316303
0.0191492
0.0294351
205.218
0.0192228
0.0191659
0.932311
0.0191599
204.864
0.02692
0.0191644
0.936752
0.0214216
0.0191918
0.0318281
0.0290028
0.932892
168.996
5.69293
0.0191936
0.920976
0.0377559
0.0191621
0.0191578
0.0365548
0.929783
0.0191643
0.0191535
0.0191634
0.896386
0.0333081
0.918541
17.2125
47.0705
171.693
0.933555
0.937926
0.0191528
0.0191676
0.0191496
27.8278
0.0191446
0.0309988
2.24694
0.0233759
166.203
62.4739
81.0746
0.0191644
159.898
153.641
0.0191563
0.0191748
0.033051
0.0193731
0.0191608
0.0191427
79.8677
0.019167
0.0192286
0.0191831
0.0192493
70.8155
0.224492
0.0191461
0.0191488
0.934051
0.0191644
0.0191633
0.280824
0.93378
0.0309369
0.84941
0.0191426
0.0295082
48.2572
0.0191933
0.0191631
0.936217
0.0290279
0.0669473
0.0191882
119.465
0.940021
0.924856
0.019023
18.8992
0.0193254
0.0192029
62.3119
0.0273682
0.0191574
0.019164
0.0193119
0.0191679
0.0186423
0.0191644
0.0699329
0.0191623
0.0191691
0.0192539
0.0200212
0.019182
0.0191838
0.0191655
0.0191751
129.337
0.0192981
1.13027
0.918892
0.0191644
0.57325
0.89526
0.224741
0.417534
0.2825
68.9615
1.86594
81.745
0.0183071
0.113383
0.0191644
0.12412
0.0191669
0.0191643
6.03076
0.0191601
87.5084
77.3581
0.02004
0.0191516
0.0191581
0.0191828
6.92021
0.100726
0.0191715
6.04798
0.0195095
0.0191644
10.6203
0.0191506
121.132
116.891
0.0191635
0.0191644
0.0191648
0.0182723
0.0191606
39.6041
0.0750522
45.7996
0.0191642
91.0073
0.0191649
0.589753
89.5205
46.3209
64.6878
0.257254
0.0189985
0.0191644
88.196
114.044
0.0191644
0.0192713
71.4899
0.0191631
0.0191635
0.0191644
87.6683
0.927614
0.0191522
0.01915
0.0191572
4.21385
0.367419
0.019158
0.019162
0.0191741
0.0340727
0.0191648
0.0192475
0.0192428
0.485169
140.64
0.769595
0.0191819
0.253296
4.18585
0.0191628
0.0191509
0.0227463
0.0303753
0.019348
0.0191624
10.4192
3.57997
2.78116
0.0191647
85.673
0.0282625
0.0191644
132.361
2.98294
0.849089
1.20894
0.927722
0.0191645
0.0191644
0.0190429
0.019158
0.0204389
0.0192158
98.9948
0.0191562
0.45825
106.782
0.0191644
0.0195662
0.0191662
0.0191644
0.0716777
0.019156
46.2736
0.0191644
0.0191644
0.0150402
6.17948
50.4298
1.16815
0.0191643
0.432426
0.0191762
0.0191523
0.362793
0.690368
0.0191673
31.0737
2.15951
0.0191495
15.6789
5.37554
1.56404
0.580264
112.978
0.351737
0.0707601
1.64468
0.0192382
1.44721
0.0191644
0.0191509
100.51
0.901389
30.6671
42.8204
49.0364
3.28092
0.0191644
0.0191909
115.308
1.62639
32.3748
4.49889
7.71489
16.7429
37.7583
27.7437
89.49
0.224041
26.2182
75.8674
0.0264059
126.131
31.7942
0.00616642
0.0288007
0.938141
0.0193385
45.2293
0.0303026
32.8594
212.273
0.0191637
188.049
0.0191644
0.0224373
0.46788
0.020206
1.45639
7.54939
0.0911423
0.930177
0.0191833
0.019159
0.932047
84.4935
0.0191644
0.762963
0.0190186
0.0191677
0.018466
0.0273918
0.0191604
0.0191644
0.0191644
0.0191298
0.942558
0.35718
0.0191631
0.0191436
0.0191329
50.8262
0.0191644
0.0190546
0.0194416
0.0191644
30.8207
0.109244
0.0191517
0.0191777
102.167
35.4963
0.0211051
17.3626
0.0191649
0.0191532
0.927962
147.894
0.0193975
0.0191412