/*--------------------------------*- C++ -*----------------------------------*\
| =========                 |                                                 |
| \\      /  F ield         | OpenFOAM: The Open Source CFD Toolbox           |
|  \\    /   O peration     | Version:  2312                                  |
|   \\  /    A nd           | Website:  www.openfoam.com                      |
|    \\/     M anipulation  |                                                 |
\*---------------------------------------------------------------------------*/
FoamFile
{
    version     2.0;
    format      ascii;
    arch        "LSB;label=32;scalar=64";
    class       volScalarField;
    location    "0.35";
    object      nut;
}
// * * * * * * * * * * * * * * * * * * * * * * * * * * * * * * * * * * * * * //

dimensions      [0 2 -1 0 0 0 0];

internalField   nonuniform List<scalar> 
32842
(
0.000572951
0.000572919
0.000572897
0.000572889
0.0010071
0.000572889
4.15485
2.73118
0.000572889
0.000572887
0.503189
0.698493
0.00057255
0.000572889
0.000571364
0.00057301
0.000572772
0.000572889
0.000573053
0.000992808
0.00106042
0.00109915
0.00097139
0.000572898
0.000977916
0.000572889
0.000572889
0.000830905
0.271014
0.000572893
1.05473
0.464361
10.3719
0.000572693
15.77
4.52068
0.00117692
0.000575189
0.000572751
0.00057288
0.000572893
0.0010563
0.000572889
0.000572889
0.322246
0.000572797
1.78675
0.000572488
0.00103844
0.0668014
2.01198
0.000572889
0.578769
0.143128
0.000572895
0.00784799
0.000572889
0.22679
0.000572891
0.000572889
2.24206
0.55681
0.620076
0.00106435
0.000572708
8.15003
0.000572892
0.688143
0.430011
0.000574262
0.000820052
3.35788
0.489175
0.000572889
0.000572889
0.000568867
0.124144
0.000572889
0.488377
0.860306
0.00100126
0.000572889
0.000572889
0.543627
0.765157
0.000572889
0.000572889
0.00426261
0.111805
0.000572888
0.00100716
0.00103104
7.0804
0.000572581
0.000572889
0.000572677
0.474598
0.000571843
0.706037
0.000572889
0.000572889
0.00141363
0.000574524
0.412609
0.485321
0.444304
0.780782
0.000530417
0.516644
0.00057327
0.000572888
0.000572885
3.26017
0.000572888
0.000574402
0.00104601
0.533023
0.709077
0.000574189
0.000572645
0.000572878
0.000572888
0.00192711
0.000572896
0.000524752
0.483463
0.386782
0.000572688
6.00395
0.000572895
0.000572889
0.000545555
0.00163674
0.481448
0.00168782
0.000573137
0.00306058
0.106391
0.000572661
0.000572933
0.521192
0.000572797
0.518222
1.1266
0.000572834
0.000572834
11.3946
0.000572882
0.000572889
0.00057281
0.000587652
0.164701
0.000915311
1.57571
0.000572842
0.000572889
0.000572889
0.000572883
0.000573029
0.000572889
0.000572978
0.000572889
0.000965405
0.000572889
0.000572693
0.000572741
0.000572889
0.000572726
0.000574
2.20063
1.89766
0.00138956
2.8207
0.000572889
0.00107479
0.750468
0.000572602
0.000575023
0.000572889
0.000572886
0.000934746
0.000572756
0.000572748
0.000572889
0.536361
0.000572758
0.493322
0.000572842
0.000572673
0.000572584
0.000572631
0.0865579
0.42147
0.000572889
0.437912
0.0005725
0.000572514
0.000572495
0.473174
0.000572874
0.000572538
0.00057617
0.092764
2.16694
0.700369
0.00323784
0.000572757
0.00106054
0.440894
0.000572835
0.000572769
0.000585039
2.74534
2.68254
0.000572792
0.000572889
0.000572833
0.000572416
0.000572954
0.000572912
0.0698943
0.000572889
0.000572889
0.000572975
0.00134885
0.370774
0.000572894
0.45706
0.000572669
2.91337
0.000572887
0.000572886
0.000571447
0.000572889
2.65464
0.000990432
0.00100633
0.0670246
0.000572673
0.555543
0.0569305
0.000572973
0.000572886
3.04096
0.000572532
0.000573181
0.586993
0.00057289
0.000572889
0.000572953
0.000572889
0.000572889
0.000573002
0.474512
0.000572013
0.000572889
0.000572712
2.31927
0.000572807
0.000572721
0.000572889
0.000572889
0.000572889
0.000572894
0.361687
0.000572889
0.000572887
0.000572541
0.000574355
0.000572895
0.000572889
0.477815
0.000572889
0.36572
0.000572889
0.957901
0.00057294
0.00131945
0.000572889
0.000572902
0.000572888
10.1551
6.93416
0.000572889
0.000572922
0.00408285
6.82574
0.000572889
0.00106087
0.000572889
9.81896
0.000572894
0.427722
4.97916
0.182604
0.000552651
0.424308
0.000572886
0.000572334
0.00095811
1.24975
0.000572897
0.000572833
0.000572909
0.000572889
0.000572889
0.000572889
0.000572889
0.000572398
0.56083
0.000572916
0.000572889
0.55227
0.000572882
0.000572889
0.000572828
0.000572778
1.91804
0.000572879
0.000572909
0.00057292
0.0568287
0.000572863
0.000714982
0.000572896
0.000572848
0.000572905
0.000572895
0.00057267
0.000572889
0.000572919
0.500162
0.000572889
0.000572889
0.000572607
0.000572889
0.932821
0.431833
0.000572889
0.000572768
0.000572636
0.000572937
0.000998654
0.000572889
0.558541
0.000572889
0.000572889
0.450651
0.643057
0.513329
0.00057896
6.4603
0.000572968
0.472942
0.000572888
0.000571582
0.00124716
0.000572863
0.000572881
0.000572031
0.000572889
0.000572889
0.000572643
1.12309
0.000572889
0.000572629
0.000572889
0.000572889
0.400934
0.000940347
0.000572889
7.24552
0.000572706
0.0015354
0.000572889
0.518503
0.00131688
0.000572889
0.000198849
0.000972818
0.000572809
0.567595
0.486387
0.000572798
0.00057271
0.000572897
0.000572889
0.000572889
0.000572889
0.00057273
0.000572804
0.000572651
0.000572815
0.000572889
0.000572933
0.000572889
0.00057284
0.000573011
0.00057298
0.000572881
0.11489
0.000572889
0.000572777
0.000573466
2.84617
0.000573174
0.000572634
0.0014325
0.000572889
0.00115873
0.380482
0.000572694
0.000572889
0.000572804
0.000572748
0.00057287
0.000572889
0.000572878
0.000573121
6.54296
0.000573225
0.488428
0.000572889
0.0011346
2.71659
0.000572889
0.000572883
0.000572889
0.000536532
0.000572893
0.000569878
0.000572889
0.000572889
0.497889
0.000999612
0.946274
0.000572743
8.91563
1.48564
0.527297
0.0010561
0.506712
0.00111079
0.537393
0.000573005
0.000572698
0.00076127
0.000572895
0.00092904
2.52633
0.000572897
0.000572421
0.000575075
8.96262
0.000902852
0.000572617
0.00057278
0.0010239
0.00057266
0.000576319
0.000572274
0.00109248
0.000572889
0.000572891
0.000572889
0.00057267
0.000572832
0.540894
0.000572625
0.000573635
0.000572889
0.00110003
0.00101434
0.000572889
0.000572709
0.543915
0.505219
0.000572889
0.000572894
0.000572889
0.000572889
0.00100245
0.000572659
0.0347223
0.542578
0.000572872
0.000572895
0.691693
0.000578424
0.000572889
0.00120622
0.000574641
0.000772559
0.000585744
0.512421
0.00106925
0.411591
0.544596
0.000560422
0.00057236
0.00119451
3.85934
0.000572746
0.51
0.00132997
0.703189
0.000903272
0.000572889
3.66103
0.00121521
0.000572686
0.491465
0.000572369
0.477506
0.000572727
0.000572894
0.00134246
0.00149724
5.63676
2.24553
0.39374
1.93136
3.86828
3.20049
7.64534
0.527618
0.000572721
0.000572781
0.000572734
0.543428
0.270161
0.634286
0.847972
0.000573246
0.000572871
0.000913225
0.230131
0.000572899
2.68534
0.336862
0.0005742
0.969291
0.000375962
3.39741
0.000573041
0.000572889
0.000573067
0.517467
1.56969
0.000572889
0.0011086
0.00057332
0.157455
0.427866
0.00057284
0.000572886
0.000572829
0.000572889
0.0405444
0.0917349
0.000572889
0.000572889
0.000573112
0.473363
0.148764
0.680879
0.000572895
0.000572875
0.000572889
1.81923
0.551522
0.413416
1.00242
0.421671
0.000572889
6.28746
0.423085
0.000572721
2.86996
0.00057289
0.00100534
0.000572889
0.000561738
0.0010137
0.000973684
0.000572889
0.000572761
0.00057283
0.000573007
0.550016
0.00107499
0.000572893
0.000572908
1.77843
0.000572889
0.00225559
1.2736
0.653628
0.000572092
0.000572884
1.13009
1.11815
6.23369
0.000572671
7.55586
0.78265
0.101035
0.000576642
0.219914
0.000572893
0.000572889
0.000572897
0.000572889
0.000572889
0.148761
0.00102754
0.000572729
0.000572889
0.000572813
0.000572889
0.000571292
0.000572815
0.000573107
0.0313046
0.672945
0.000573167
0.000572889
0.0614593
0.223687
0.165033
0.000572412
0.126199
0.000572889
0.000572889
0.000574514
1.11482
0.491287
0.000572889
0.0011746
0.000572889
0.310678
0.000572889
0.000572889
0.000572893
0.000572898
0.192558
0.000572889
0.000572889
0.563795
0.10167
0.000563367
0.000572881
0.000572888
0.432281
0.769168
0.000572889
0.495728
0.000990091
0.000572889
0.000572889
2.75257
5.37802
0.000572889
0.694667
2.65011
0.000573221
0.218079
0.000572814
0.000572889
0.00126416
0.00122989
0.000615042
0.000572929
1.96825
0.000572889
1.80819
0.000572889
0.000572889
1.41888
3.50831
0.818994
0.185075
0.000572889
0.000572883
0.000938838
0.000978723
1.93428
0.273363
4.40611
5.29544
0.000572827
0.000574977
6.44761
0.000572889
0.428201
0.000572785
0.000575372
0.609886
0.264777
0.000572351
0.000574229
0.000572889
0.00057275
0.000572648
0.000572889
0.000572919
0.000572889
0.000572889
0.563705
0.000572889
0.000574058
0.000572889
0.887002
0.000572884
0.000572465
0.000572843
0.419192
0.000572889
0.000572626
0.000566705
0.000572225
0.000572687
0.000572893
0.000584219
0.000573278
0.00057267
0.000572834
0.000572676
0.000151929
0.000572089
0.0012329
0.000744313
0.00109711
0.000572889
0.00123311
0.00156084
0.408324
0.00057262
0.000572966
0.00118931
0.0985663
0.000572889
0.373525
0.00109307
0.000572889
0.000572889
0.000564496
0.000573231
0.000573553
0.57245
0.000572889
0.000572867
0.000572713
0.00114797
0.473662
0.000572744
0.0012319
0.000572889
0.000937862
1.0779
3.27274
0.00106608
0.000572636
0.642697
0.000572837
0.000572889
0.000572653
0.000572892
0.000575805
0.000571838
0.119718
0.000572889
0.000575947
0.579501
0.00126143
0.000572788
0.000573939
0.000572889
0.637819
0.00164347
0.523495
0.000573071
0.421915
0.380013
0.00105349
0.000572895
0.000912023
0.000572751
0.00109605
0.000572613
0.000572781
0.00104882
2.64212
0.46662
0.00057275
11.1075
0.000572375
0.394559
0.000573123
0.000572889
0.000572804
0.000572889
0.000572159
0.000574434
0.000572681
0.000572862
0.000572889
0.000572777
0.000572769
0.00057284
0.476075
0.000578269
0.0875492
0.000572817
0.000572916
0.00109811
3.61812
0.000572823
0.000572804
0.00104865
0.00057288
0.000574575
0.000572911
0.00131079
0.641649
0.000572889
0.000572889
0.000574259
0.000572456
0.000572889
0.00057315
0.000572799
0.000572889
9.5284
0.000572611
29.5699
0.000572977
0.000572751
0.000572471
0.000572359
0.00105904
0.000572698
0.000572889
0.000572889
0.000572801
0.148786
0.000572889
0.000574045
0.515801
0.000572114
0.480728
0.000572872
15.6905
0.000572472
0.000572627
0.655151
5.34582
0.000570142
0.000573161
6.41363
0.00128248
0.00057251
0.000572779
0.000572889
0.000572733
0.000572742
0.472112
0.539114
0.487644
0.000572889
0.526015
0.000572715
0.000572412
0.000572692
0.00101381
0.000747032
0.000572839
0.000573015
0.000572889
0.000573023
0.000573794
0.000572889
0.000572723
0.00057215
0.000572046
0.0100516
0.00126939
0.000572889
0.096596
0.1723
0.000571891
0.000324387
0.0508148
0.000572889
0.00057287
0.000572685
0.366601
0.000572889
0.000572889
0.458759
0.00116245
0.000572853
0.000572889
0.000572889
0.000572787
0.000664889
0.115895
0.000572888
0.000572514
0.407661
0.000573279
0.000573068
0.428721
0.00057274
0.000572889
0.000572896
0.000572615
0.469628
0.000572898
0.00057133
0.000572889
0.000572816
0.00121518
0.000572889
0.407165
0.00100959
9.15231
0.000572889
0.000572889
0.000572565
0.000572769
0.000573029
0.000572889
0.0551482
0.995196
0.000895289
0.00797524
0.000572889
0.000945237
0.000572889
0.000572889
0.00057308
0.000572889
0.000572787
0.000572889
0.000572889
0.000572607
0.000572827
0.000572889
0.192268
0.00057284
0.674852
0.000572702
0.560575
0.544737
0.000572889
0.000964495
0.547631
1.9976
4.30302
0.00839784
0.000572756
0.000572896
0.000572889
0.000572896
0.0966409
0.000572895
0.136424
0.0741702
0.0354959
0.082372
0.000753458
6.3876
0.000572889
2.87041
3.71276
0.000572876
2.1745
0.000413537
0.000573172
0.000572889
0.000572818
23.3133
0.000572623
0.504262
0.0010279
15.4743
0.353967
0.570643
0.0014283
0.000572889
0.000572696
0.000573
0.000572504
0.000579727
0.000572889
0.00057271
0.000572988
0.089724
0.00118559
0.000572997
1.40679
0.00057272
0.00057261
0.000573105
0.000572814
1.56217
0.155499
0.000572554
0.000572908
0.000572637
0.497736
0.0633296
0.000572739
1.54548
0.520823
0.0577223
0.000572924
0.000572844
0.883513
0.565203
0.000572428
0.000573033
0.0005729
0.000572774
5.92656
0.000572831
0.368651
0.000572556
0.000572889
0.000572638
0.000572865
0.000635196
7.33233
0.000572768
0.000572926
29.8672
0.0848719
0.453819
0.000572509
3.40959
0.970783
0.000572625
0.000572893
0.000572823
0.659112
8.92119
0.000572685
0.00104763
1.78528
0.000572654
0.000750867
1.9735
0.000572648
0.000572867
0.000573671
0.000572811
11.8119
0.000572927
0.000573015
0.0637895
30.977
0.00081046
0.000771873
3.92465
0.000572847
5.31035
0.353854
0.000572925
0.624868
0.292206
3.69196
1.19856
2.83026
3.02973
0.000572691
1.7601
0.458907
0.000403218
0.000573008
0.000572566
0.000572615
0.000572929
0.000572593
0.000572872
0.000572954
1.23224
0.000572889
0.000572889
0.00996961
0.000572889
0.000572331
2.38703
0.0729881
0.00121325
0.000677611
0.000572864
0.198597
13.0271
0.458877
0.000572943
0.000572789
0.000573046
0.210957
4.39675
0.00131742
0.000563997
0.744043
0.000572614
1.487
0.000590263
0.000572854
0.173406
0.00116458
0.000573194
0.0213489
0.000572991
0.000572709
0.121865
3.43935
3.85071
0.000572907
0.000572667
0.000572889
0.000572868
0.000575635
0.000649839
6.84792
0.000572889
0.000572889
4.87253
0.000572644
0.000572746
0.0500592
0.000572889
3.7804
4.07874
0.000572889
0.00057277
4.31019
1.58008
3.95407
2.11818
0.000572783
9.10745
0.567197
0.00147183
6.19257
0.000109743
0.596862
0.000572727
0.00057256
0.000544922
0.297925
0.00156815
0.000572958
0.132691
0.451549
9.12679
0.0626938
0.000572889
0.0422946
0.400154
1.57025
0.000572889
0.000572592
5.74733
0.000572908
0.000574872
0.173791
0.000578351
10.4655
3.39263
0.00217845
0.000713619
0.000572716
0.000572765
4.30061
0.250344
0.000572761
0.00057386
0.000572889
0.191292
0.00057467
0.227494
12.1262
0.000574044
0.211355
2.02352
0.027453
3.78344
4.44091
1.43987
0.000576111
0.544859
3.87025
0.952442
0.000888284
0.000572889
4.2818
0.000573362
0.000563634
0.00166313
0.0270722
0.470117
2.40116
0.00126008
0.570103
3.06654
0.00057276
4.91702
0.00145553
0.573755
1.41666
0.00057322
0.451993
0.236927
3.09507
0.00167371
0.000572891
0.574343
0.000572889
0.00106275
1.18386
0.000976918
0.000574599
0.45891
0.202304
0.000572352
8.50838
0.000572889
0.000572694
0.000572808
0.000572998
0.526155
0.00094749
0.000572889
0.118999
0.367422
0.000573297
0.000573621
23.5869
0.000572662
0.000572889
0.000572956
3.68611
3.31717
0.000572585
7.26392
0.000572889
2.32433
0.212566
0.000579977
0.471689
0.938955
0.0291286
0.00281642
0.000572855
0.390159
8.06154
0.177264
3.3661
13.8907
0.0010652
3.09694
0.00057283
7.15254
0.000572156
0.453187
0.000573569
2.92635
0.000572648
0.00104544
0.000818022
0.794504
0.293048
0.00103086
0.00057271
5.3182
0.429113
0.00057265
0.000572889
1.91978
0.0714598
0.000572061
0.612603
0.000572926
4.26927
1.83269
0.616225
0.000572659
0.000572765
2.62349
1.26174
0.00102709
0.000573428
0.0012689
0.000572635
0.000573055
0.237249
0.000572889
0.484248
0.436178
0.000573134
0.0570993
0.000572887
1.6138
0.58156
0.000572889
0.00169786
0.777151
0.000572892
0.000572889
0.000572832
0.172409
0.00057284
0.000574216
0.00057265
0.00125951
0.000574177
0.000576992
0.000573091
0.000572889
0.000572786
0.000572862
0.000572812
0.000572646
0.000573049
0.000572967
0.000572773
2.80787
0.000574346
0.000572857
2.38876
7.83575e-05
0.000572644
0.000572715
0.000573684
0.000572889
0.00118365
2.41381
0.000572358
0.000573208
0.000574869
0.000588534
0.187665
0.16881
0.00146526
0.392489
5.04388
0.000572887
0.00057286
9.21964
5.66724
0.00101892
0.612444
0.000573
0.000572212
0.755926
0.00103601
3.67699
0.00128396
0.00136397
0.000887359
0.000572399
3.90968
0.000572779
0.000572898
0.00130441
4.42149
3.00917
0.359989
3.93499
0.000976954
0.000941257
0.00408693
0.000570604
1.72183
2.84181
0.0009599
0.788765
0.000572667
2.4493
0.00057267
0.000654855
0.000574123
1.24232
0.000572889
4.90012
0.000574437
0.00057279
0.00131227
3.05129
0.152921
0.000531837
0.000572774
0.000572753
4.83464
0.000572751
0.000572889
0.294167
0.000572889
2.55642
0.000571374
0.0005738
0.00057919
0.000573071
0.000573009
0.000572889
2.19903
0.00057271
0.102632
0.19514
0.000572936
0.000572746
0.000573132
0.000572757
0.000573696
0.000572678
3.89058
0.000572607
0.000572582
0.000572889
0.00134608
0.373421
0.000572808
0.000574424
0.000572887
2.35994
0.000572261
0.000572992
0.000572967
0.000572924
0.000572708
0.55944
0.000572937
0.000572892
0.000572858
1.82466
0.000580595
0.000573073
0.000572473
0.553051
0.00057466
0.00057612
0.201243
0.000572845
0.000574887
0.000574658
2.8025
0.000572742
0.000572953
0.000513941
1.75416
4.79001
0.000573135
6.72265
6.11111
4.85116
0.000572766
5.9007
0.0973287
0.000946779
0.000573018
7.65845
5.57144
0.000572493
0.000572898
0.000573108
0.000572492
7.83096
6.15641
0.000572664
0.000572889
0.000546763
0.000573145
0.0005744
0.66058
0.000572858
2.19101
8.00955
0.000572892
0.000585262
0.169328
0.000595105
0.000384492
0.000572879
0.000572577
0.448859
0.000572719
3.2186
0.000572459
0.000576924
0.000572956
0.591083
0.00132519
0.000572688
0.000572623
0.000572889
0.000572759
0.000577809
0.000573061
4.77339
0.000572704
3.62948e-08
0.00566945
0.00180897
0.000572628
0.115462
0.621107
0.000572799
0.176697
0.0667186
0.0017429
0.000573048
0.000572753
0.529318
3.4955
0.140087
0.0417348
0.00057295
0.000572889
0.0017834
0.000572552
1.94449
0.000572719
0.000572711
0.00118444
0.0140063
0.000572778
0.000572889
1.11599
0.000572889
0.000572756
0.000572889
0.000572889
1.23863
0.55383
2.2361
0.000572889
0.000572678
0.000572636
5.31592
0.000574508
0.574132
1.82241
0.00129371
0.000572716
0.000572791
0.000572818
0.000572889
2.75837
2.20339
0.000572889
0.000572672
0.000572761
0.00057274
0.46844
0.000572889
0.525751
0.000572889
0.551353
0.00114047
2.24312
0.00057289
0.000572883
0.000572889
0.000575967
0.000574121
0.000574629
0.000572889
0.449401
0.000577707
0.956762
0.407442
1.32124
0.00057266
0.00057316
0.000572896
0.000572889
0.000579655
4.23883
0.000572889
0.000572567
0.000572727
0.583104
0.343359
2.76341
10.7564
5.38884
0.495648
0.0018633
19.5862
0.000565915
0.440172
0.000569101
0.000571351
0.00148755
0.139419
0.620292
0.00340993
0.00057287
0.496164
0.739654
0.000572889
0.000572889
0.00057435
0.000573485
0.000572668
0.000572738
0.00104099
0.302958
0.000572894
2.7243
1.18198
0.000572888
0.000572889
0.000572889
0.000572593
0.000572889
0.000572882
0.000573555
0.00123742
2.28851
0.000574016
1.01712
0.622883
0.000575701
2.53697
0.532792
0.00057241
0.00103147
0.252111
0.000613018
0.00104668
0.00109061
7.34402
0.65342
0.000573814
10.9276
0.000572889
0.000572684
0.000767181
0.00057312
0.00057294
0.000572828
0.00057289
1.82413
0.000572866
0.000572702
0.000572372
0.000572889
0.000573095
0.000572708
0.000573216
0.000573546
0.599927
0.000572889
0.746452
0.000572633
0.000599072
0.000574818
0.000572872
25.1299
0.000573208
0.000572785
0.39088
3.14559e-05
0.000572502
0.000570698
0.000178216
0.00768441
0.246746
0.000581465
0.000572889
12.9459
0.000572858
0.00057304
0.000572885
0.10678
0.000572815
0.000572739
0.000572728
1.1913
0.000935864
0.000572755
0.00104246
0.000572852
0.609807
0.00136403
0.00057296
0.0176382
0.000572893
0.000572718
0.000572781
0.000572794
0.000572889
0.000572696
0.00108615
0.000572863
0.000572916
0.000586809
0.608628
4.70464
0.000573033
0.000576891
0.00129437
0.000577659
0.087541
0.43397
0.0128251
0.000596278
0.000574382
0.00107097
0.000572634
0.000585439
0.000572688
1.13367
0.377933
0.00120169
0.48282
0.70234
0.000572636
0.000572896
0.771798
0.000572889
0.000572506
0.0323181
0.00112237
0.000572721
0.000572845
0.000411705
0.000572637
0.000572678
0.00057285
0.000572889
0.000572511
0.612434
0.000572836
0.000572707
0.00057263
0.000572898
0.000572889
0.141872
0.19504
0.0012566
0.000572703
0.00098961
0.00242238
0.000572538
0.000572795
0.000572721
3.39476
0.479321
9.72905
0.000572904
3.39405
0.000572886
0.000572695
0.203819
0.401835
0.000572973
0.000573467
0.000572889
0.000572833
0.000573004
0.000572496
0.000572704
0.000572801
0.649523
0.0284277
0.680926
0.000572954
0.000572938
5.70809
0.000572652
3.78101
0.00057282
0.000979311
0.000572604
0.000572889
0.00057276
1.49426
0.101279
0.000563462
0.000565633
0.000572889
0.000572889
0.000148348
0.000572663
0.799146
0.00110391
3.61953
0.424085
0.000572889
4.23785
0.000572889
0.000572707
0.000572889
0.000572889
0.000572775
0.000572791
0.572018
0.000572744
0.0019039
0.000572889
0.000579145
0.000572964
12.4837
0.000572776
0.000572803
1.34559
0.562113
0.000572829
0.000573009
0.000572886
0.000572738
0.0368154
0.000572561
0.560082
0.000572876
0.000572797
0.00500991
3.94941
0.000573011
0.000564645
0.000572762
0.000602535
0.000572889
0.000572889
8.55553
0.000572788
0.000572889
0.00135836
0.000572889
0.000572628
0.000572473
0.000572894
0.000573716
0.00225781
0.000572733
0.000576043
6.87236
3.4791
1.63311
0.000572892
0.000572755
29.4078
0.000572808
0.000581357
1.99703
0.000572595
0.269538
0.255536
1.50991
0.526093
0.000572786
0.000573103
0.000572808
0.000572889
0.000573072
0.467332
0.000572701
0.450726
0.000572588
0.359023
0.0100303
0.000572892
1.63497
0.000572677
0.000573087
0.000698496
25.0028
0.658325
0.000572889
0.49391
0.000573057
0.000572889
0.000572792
0.000573556
0.000573306
0.000572889
3.66246
0.48095
0.000576708
0.000572656
0.000576487
0.000572889
8.58592
0.000572889
3.40617
0.000572739
0.000572889
0.000568539
0.00119772
0.000572679
6.82874
4.74252
0.000573114
0.00057319
0.000572862
1.70622
0.000573296
0.000572873
0.000572772
0.850988
0.000574323
0.000572889
0.000573202
0.0856245
3.33396
0.458007
3.83063
1.67934
8.52925
0.00057285
0.000572737
0.000573785
5.20058
0.000572844
0.000572747
3.03517
0.000833351
0.162592
0.000572858
0.000572497
0.510302
0.469116
4.28638
0.000572889
0.000572796
1.71398
28.7623
0.00687023
4.16518
0.0818299
0.000572878
0.000573119
5.5209
0.000572774
0.000572848
0.00115675
4.12706
0.000802951
1.93338
0.523268
3.83512
0.000572867
0.24833
3.35363
0.000572799
0.000572775
5.1263
0.000573128
0.000572803
0.000572826
0.000572814
0.000578149
0.00264754
0.000573193
2.27483
0.000572737
0.000572889
0.000572793
0.000569384
0.000879237
0.0370912
0.000572862
0.000572551
0.000572787
1.6077
3.93227
0.000572489
0.00057282
0.000540337
0.000572597
0.000602167
0.000572878
0.000572874
3.69283
0.000575828
2.00638
0.000572889
3.29277
0.000572819
1.50953
1.60609
3.74794
0.000572709
0.000579099
2.62065
0.000572572
0.000572837
0.000572854
0.000572845
0.000145092
0.0124535
2.54198
3.34744
2.87761
6.34523
0.0010408
3.72325
0.0011338
0.00122871
0.000572594
0.000572516
0.00126347
0.000572574
0.000955826
0.000572723
0.000574086
0.000572962
0.00121261
0.000572814
0.000579099
0.00111058
0.000572655
0.000572889
0.000572984
0.000572788
0.000572641
0.000572889
0.36411
0.000572885
0.000572872
3.11744
0.000572684
4.96211
5.07118
0.49125
5.55544
0.482829
5.57614
0.534053
0.000572889
0.000572889
0.00057268
0.426076
0.000572889
1.2138
0.000572757
0.000572788
0.000572813
0.00057289
0.000572338
0.000572778
0.000572608
0.000559843
0.00057289
0.564189
0.000572364
0.000572845
9.11677
0.000575762
0.000572629
1.37742
0.408301
0.000572693
0.000572692
0.000572722
0.703494
1.18403
2.628
8.47231
3.20229
0.000572852
0.000572757
0.000572775
0.000572686
0.000572659
0.000572741
0.00105457
0.000572669
0.000572775
0.000572723
0.000573808
0.00057296
0.000572863
0.000573136
0.000574091
1.77024
1.69695
3.89528
0.0242582
0.159999
0.000572446
0.000572886
3.8199
0.000546492
0.000572711
4.12509
0.00102407
0.000572913
0.000573011
0.00176986
0.700028
0.057806
0.000572543
0.000572889
0.00118154
2.73697
0.000572889
0.000572583
0.000572889
0.0211494
9.38569
0.00057471
0.00121593
0.000572748
0.000572894
0.000572549
0.000572807
0.000572817
0.000572812
0.000572797
0.000572554
0.0005729
0.000572868
0.000572785
0.000572785
0.000572762
0.0125931
0.000572506
0.0215282
1.18356
4.0157
3.17056
0.489717
0.53157
0.695525
1.07308
0.000572889
0.000572917
0.000572042
0.0582763
0.245845
0.418567
0.0239627
2.7923
2.97924
3.50392
4.20316
0.000998975
0.000264293
0.0005751
2.7084
0.0234132
4.89884
0.00057251
0.000572752
0.000573053
0.000572794
0.445072
0.094843
0.00780336
5.91655
0.000574302
0.000572685
0.000572727
0.000572633
2.29064
0.000847697
0.000572609
0.000572705
0.707966
0.000248612
0.000572696
0.000572892
0.000574428
0.000572939
0.000572889
0.00057256
0.493236
0.000572197
0.000572889
0.000571846
5.87067
0.00057461
0.000499106
0.000579636
0.000572646
1.48573
0.000573248
0.000576743
0.000572931
0.00688021
0.255979
0.570394
0.000573295
2.30363
0.00057285
0.000572959
4.62734
0.841003
1.11406
1.21898
0.639659
0.000572889
8.01318
0.000572522
0.000572889
0.000572889
0.000573386
0.000572889
0.109127
0.000572791
0.215543
3.07997
0.000573115
0.000572857
0.00159656
0.000575
0.573126
0.000572889
0.00359979
0.000572889
0.000573488
4.29238
0.000572544
0.000572749
5.00543
0.000572809
0.000572566
0.000572783
9.10148
2.14935
0.00057266
4.44155
0.000572655
0.000572802
0.00057269
0.000572896
0.000572664
0.00057293
0.000572758
0.000572889
0.000572665
0.000573448
0.0123161
0.00057279
0.000162885
0.000572676
0.00248142
0.00107342
0.109191
5.19449
0.000572889
0.000572889
0.000572673
5.10648
14.3067
0.000572889
0.000573026
11.1834
6.42049
0.00720358
1.92761
2.25677
0.000573002
0.417811
0.4377
0.00057426
0.000572659
0.000573235
0.000575879
0.579447
0.000559996
8.98982
0.000572889
0.000572824
0.412747
31.972
0.000574023
7.92951
9.08597
0.000572971
0.000573225
0.00126996
0.000572648
4.5564
0.00122233
0.00127958
0.00132909
0.00057289
0.000572846
0.591354
0.0035495
0.000574961
0.000572852
0.000572746
0.000572708
0.000572702
0.000572719
0.460986
0.385359
0.229526
0.000572889
0.000572844
0.000572889
0.000573145
0.00057429
0.000572916
0.00057561
0.000576893
0.193705
0.000572838
0.365227
0.460674
0.00057282
0.0005732
0.000572758
2.07338
0.000572888
0.000575852
0.992932
0.563591
0.000572048
0.000572889
0.000572875
0.000572777
0.000574592
2.2748
0.000576932
0.000573077
0.137805
4.10692
0.000572648
2.79634
0.000568322
5.77442e-05
0.000612148
0.000572857
0.895977
0.000572537
0.000572373
0.000572718
0.000573977
0.000574475
0.000573825
0.00145854
0.000574952
0.000873961
0.000573424
0.00299103
0.000576489
0.000572537
0.000573446
0.000573935
0.00146152
0.410067
2.96057
0.000576415
0.000616211
0.00111768
0.000572666
0.00134091
0.612006
5.97931
0.0012976
0.190192
0.000573092
0.00163839
1.11665
0.000572719
0.937053
0.903157
1.8382
0.00125005
0.00111681
0.308006
0.000572676
0.000573714
4.36152e-06
11.018
0.000577547
0.000572954
0.0431295
0.000575679
0.000573105
0.00127021
0.416444
7.15344
0.000572828
0.308113
0.000573022
0.307766
0.000573593
0.000572579
0.730689
0.00057279
0.00135758
6.76629
0.000416413
0.00135049
3.93032
0.000575697
0.0656227
0.000572967
0.556874
0.737331
0.000480577
0.000575014
0.000606259
1.21358
3.78697
2.6057
0.000574721
0.000573704
3.85266
0.000572325
0.00057239
3.914
3.18615
0.0012022
0.000572912
0.000572778
0.000572732
0.549508
0.000573106
0.000572791
0.000572889
0.0926586
0.000572783
0.000572889
0.000344048
0.00159551
0.000572889
0.000573149
4.91103
3.81565
0.000573575
0.000572473
0.620731
0.0530849
0.000572854
0.256764
0.00137481
0.00145572
0.157604
0.000572708
0.0298196
0.00106749
0.000572616
0.000573687
2.12448
0.00118692
1.02525
0.000572754
12.2359
0.191666
0.00604205
0.35046
0.00942599
2.2891
2.60502
5.11363
0.349836
3.5602
0.491398
0.000572707
0.00057665
0.511802
0.000572674
0.000572847
0.468737
0.144334
0.000572947
0.00057337
0.000572758
0.000572765
0.0011476
0.46486
0.000572697
0.171763
0.000572616
0.000572834
0.368782
0.582563
2.45592
0.000574867
0.709509
13.2681
2.64897
7.73594
0.000572899
0.000572495
0.000573446
0.000572872
0.00105388
0.00130459
0.000572511
0.000572702
3.86648
0.779919
0.00147516
10.3738
0.465248
9.96709
0.00110869
1.43809
0.000575959
3.3085
0.00114663
0.470752
0.000574676
0.000572889
3.47936
0.000572889
0.000572891
0.000572655
0.000572889
0.000572889
0.000961743
0.46144
0.000130132
0.000572889
10.0755
6.78311
0.000954075
0.000572889
0.000572771
0.000572682
0.000572629
0.0765039
0.000572669
0.639815
0.639845
0.000572893
0.000572889
6.12376
14.3097
0.897425
0.576048
0.000574978
0.00133007
0.536452
0.000572889
0.000572889
0.000572443
11.7543
0.000572888
0.000572889
0.000572889
0.000572886
0.00102936
0.00057376
0.000575238
9.73146
0.000759306
0.00170475
0.000571094
0.490064
0.54867
3.85747
8.99064e-05
0.000572631
0.741801
0.000572661
0.000572895
0.000572904
0.63776
0.000572868
0.001067
0.569318
0.000572889
0.000572889
0.441319
0.000572897
0.000572887
1.40638
0.577287
0.00057633
0.583849
0.000572596
0.000572889
0.000572889
0.000572889
0.000572882
0.865391
0.000572797
0.802646
0.00101863
0.000572889
0.000572889
0.334557
0.000573725
0.421247
0.00102369
0.000572889
0.000572889
0.000572895
0.000572859
0.000940371
0.485043
0.000572889
0.00104965
0.49747
0.000572888
0.000572889
0.000982931
0.000572881
0.000572892
0.000994085
0.0009672
0.000572889
0.000572894
2.8755
0.44541
0.00103574
0.454482
0.553008
0.000581403
0.587283
0.000572881
0.000572889
0.000572796
0.000572867
0.000572889
0.000576692
1.12796
0.000572895
0.000990764
3.21462
0.00102143
0.00057362
0.00057278
0.85572
0.0580198
0.00105626
0.828363
0.000572889
0.0951011
0.000572665
0.000572624
0.000572889
0.000572904
0.411933
0.000572896
0.552979
0.000572876
0.000572889
0.000572889
0.000572864
0.00103747
0.000937982
0.456262
0.727573
0.000572889
0.000572889
1.17867
2.00719
0.000572889
0.000572596
1.33316
0.783897
0.000316
0.573847
0.000458586
0.000572898
0.000572889
0.000572889
0.000572889
0.00095582
0.608382
0.655182
0.00057289
0.000572875
0.00100306
0.000575395
0.453835
0.000572643
0.000572888
0.000572776
0.00105164
0.00097453
0.00104299
0.000572889
0.000930299
0.53516
0.000572775
0.000572834
0.000560274
0.531111
0.000573204
0.000572889
0.000572716
0.0005731
0.000572889
0.52595
0.0011465
0.000572894
0.000572889
0.674232
0.000573207
0.000572889
0.374783
0.378552
0.00108364
0.000572889
0.000572889
0.00107198
0.000572889
0.000572889
0.000572885
0.000572901
0.000572889
0.000572889
0.000572889
0.000572889
2.9789
0.000572889
0.000572889
0.000252546
4.48761
0.380753
9.15811
3.07544
0.000573176
0.376259
3.54049
2.1156
0.000990973
4.15443
0.000572911