/*--------------------------------*- C++ -*----------------------------------*\
| =========                 |                                                 |
| \\      /  F ield         | OpenFOAM: The Open Source CFD Toolbox           |
|  \\    /   O peration     | Version:  2312                                  |
|   \\  /    A nd           | Website:  www.openfoam.com                      |
|    \\/     M anipulation  |                                                 |
\*---------------------------------------------------------------------------*/
FoamFile
{
    version     2.0;
    format      ascii;
    arch        "LSB;label=32;scalar=64";
    class       volScalarField;
    location    "0.35";
    object      p;
}
// * * * * * * * * * * * * * * * * * * * * * * * * * * * * * * * * * * * * * //

dimensions      [1 -1 -2 0 0 0 0];

internalField   nonuniform List<scalar> 
32842
(
101357
101177
101325
101325
101325
101325
101939
108103
101325
101324
104666
109913
101097
101325
101325
101323
101247
101325
101465
101325
101325
101222
101325
101325
101251
101325
101325
101325
104935
101324
102709
101325
107801
101191
108513
108245
100983
101318
101129
101313
101325
101325
101325
101325
101261
101260
102305
101050
101325
103403
108619
101325
101310
103360
101325
101527
101325
102973
101325
101325
109365
101143
101325
101325
101200
103081
101325
101174
101325
101256
101325
101020
101325
101325
101325
101254
103892
101325
101317
100644
101325
101325
101325
101325
101325
101325
101325
101060
102591
101324
101314
101325
102646
101325
101325
101176
101313
101325
101325
101325
101325
100999
101350
101136
101307
100752
104232
101303
101351
101141
101325
101322
102760
101324
101273
101325
101325
101827
101436
101158
101318
101324
103739
101325
101301
101325
101041
101187
101350
101325
101325
101126
101599
101555
101408
101431
101339
100993
101166
101339
101096
101264
101325
101644
101275
101286
105354
101318
101325
101272
101302
101184
101297
101474
101198
101325
101325
101319
101412
101325
101380
101325
101325
101325
101084
101223
101325
101215
101227
104370
101194
101294
101640
101325
101325
101355
101132
101335
101325
101323
101112
101237
101231
101325
101325
101237
101162
101294
101175
101121
101152
101148
101325
101325
101325
101060
101071
101055
101325
101315
101084
101105
101347
104416
102791
101303
101230
101325
101325
101284
101235
101087
101237
101263
101261
101325
101280
101323
101361
101301
101360
101325
101325
101379
101403
101311
101325
101325
101168
100688
101324
101323
101183
101325
101276
101325
101325
100941
101175
101325
103884
101217
101315
102640
101078
101074
101325
101325
101325
101272
101325
101325
101359
101314
100977
101325
101206
101246
101270
101211
101325
101325
101325
101325
101325
101325
101324
101092
101209
101325
101325
101325
101325
101314
101325
101319
101352
101069
101325
101327
101324
101864
102340
101325
101334
101376
101544
101325
101325
101325
107885
101325
101325
101383
103653
101157
101325
101323
100939
101325
101401
101324
101288
101306
101325
101325
101325
101325
100994
101323
101281
101325
101325
101320
101325
101284
101247
101894
101318
101336
101339
103340
101308
101325
101325
101298
101329
101325
101177
101325
101338
101325
101325
101325
101136
101325
101325
101325
101325
101245
101153
101352
101392
101325
101325
101325
101325
101325
101325
101325
101419
101631
101368
101325
101324
101228
101238
101293
101320
101356
101325
101325
101154
103896
101325
101325
101325
101325
101213
101325
101325
107410
101201
101317
101325
101175
101288
101325
101165
101325
101263
101324
101415
101261
101199
101325
101325
101325
101325
101217
101268
101164
101276
101325
101343
101325
101276
101400
101382
101171
101268
101325
101243
101157
101293
101398
101149
101258
101325
101003
101285
101194
101325
101262
101231
101304
101316
101311
101465
103089
101528
101149
101325
101201
108874
101325
101319
101325
101190
101325
101308
101325
101325
101095
101325
101325
101220
104504
102413
101325
101324
103841
101232
101325
101243
101193
101325
101325
101325
101345
101325
101005
101509
101893
101325
101139
101246
101325
101130
101394
101325
101325
101325
101325
101325
101120
101285
101325
101147
101402
101325
101325
101325
101325
101201
101325
101325
101325
101325
101325
101325
101325
101164
104967
101325
101314
101325
101325
101111
101325
101003
101472
101325
101148
101166
101325
101324
101325
100854
100967
101191
101219
101166
101325
101058
101325
101325
101325
101072
101394
101188
101325
100974
101366
101215
101325
101360
101194
101498
105966
102997
100954
101343
101328
101706
101212
101206
101253
101215
101325
102673
101325
101223
101543
101313
101325
104336
101325
102064
104948
101445
100994
101269
101211
101158
101325
101425
101324
101242
101325
101325
101265
104464
101122
101291
101314
101285
101325
104275
104840
101325
101325
101374
101252
104682
101325
101322
101315
101325
101814
101324
101207
102867
101325
101325
101365
101233
101207
102014
101325
101325
101325
100848
101325
101325
101325
101237
101284
101393
101325
101283
101325
101333
102016
101325
101325
102230
101234
101325
101321
102148
102214
105210
101171
104362
101325
103158
101239
103535
101325
101325
101325
101325
101325
103965
101325
101216
101325
101272
101325
101325
101275
101448
104405
101325
101496
101325
103267
103911
100946
101001
103924
101325
101325
101224
103334
101325
101325
101227
101325
104764
101325
101325
101325
101324
101060
101325
101325
104416
104650
101300
101312
101324
101325
101233
101325
101325
101319
101325
101325
102428
102375
101325
101306
102593
101480
101053
101273
101325
101316
101135
101117
101253
102550
101325
103181
101325
101325
101644
102183
101352
101041
101325
101305
101325
101325
101835
101301
102450
102119
101101
101014
102357
101325
104866
101248
101243
101645
101273
101325
101050
101325
101232
101244
101325
101332
101325
101325
101002
101325
101112
101325
101186
101322
101035
101292
101227
101325
101142
101224
101168
101187
101325
101011
101249
101176
101287
101178
101449
101325
101233
101325
101325
101325
101185
101428
101325
101143
101370
101139
102433
101325
101241
101201
101325
101325
101109
101111
101127
101157
101325
101310
101200
101173
101049
101220
101077
101325
101325
101435
101401
101213
101153
101325
101291
101325
101167
101323
101213
101169
103639
101325
101229
101325
101078
101256
101344
101325
101116
101242
101325
101429
101316
101243
101249
101325
101314
101232
101325
101139
101253
101325
104749
101441
101229
101943
101325
101396
101454
101325
101268
101325
101232
101228
101182
101307
101325
101243
101239
101288
101227
101513
101265
101271
101331
101102
100942
101277
101263
101325
101319
101241
101300
101603
101145
101325
101325
101430
101325
101325
101230
101265
101325
104597
101137
105070
101375
101231
100941
101149
101290
101192
101325
101325
101266
103353
101325
101280
101325
101325
101319
101313
103127
101043
101147
101325
101182
101208
101488
101463
101273
101071
101249
101325
101218
101224
101177
103731
101367
101325
101288
101209
101303
101387
101367
101325
101292
101408
101325
101397
101238
101325
101209
101348
101534
101260
101317
101325
101263
105504
101247
101246
104044
101325
101312
101184
101318
101325
101325
101317
101050
101301
101325
101325
101253
101230
101444
101324
101168
101325
101195
101203
105302
101216
101325
101325
101142
101004
101369
101245
101325
101193
101397
101325
101325
101325
101366
101325
101325
101107
101239
101411
101325
104438
102581
101325
101179
101325
101325
101325
101325
101163
101325
101251
101325
101325
101135
101277
101325
101150
101289
101325
101194
101325
101325
101325
101325
101325
102566
102447
102386
101228
101325
101325
101325
102839
101325
102422
102308
103624
104587
101325
101643
101325
101048
105629
101316
101264
101053
101499
101325
101278
105821
101140
101133
101325
106233
101325
101325
101449
101325
101191
101381
101061
101324
101325
101204
101385
101315
101219
101383
101292
101195
101129
101198
101270
100229
101856
101096
101334
101152
101062
101190
101214
101448
101463
101565
101319
101263
101031
101120
101010
101068
101306
101182
100975
101144
101250
101035
101325
101154
101296
101274
101273
101242
101343
105175
101232
101466
101067
101336
101118
101146
101325
101272
101009
101237
101188
100992
101317
101166
101204
101282
101153
101310
101182
101273
102556
101319
101339
101220
105871
101031
101189
101123
101288
101219
101109
101340
101255
100978
101273
101084
101560
101319
101186
105430
101026
101136
101399
101105
101139
101334
101116
101226
101351
105680
101325
101325
101207
101325
101325
102346
101344
101184
101161
101302
104927
103204
101311
101287
101252
101141
104522
101399
101305
101156
101842
101134
101479
101304
101300
104932
101322
101495
101332
101374
101203
103373
102706
101352
101311
101169
101325
101301
101178
101057
101587
101325
101325
101387
101154
101226
104843
101325
101301
101333
101325
101240
101323
101547
101831
101155
101251
101976
101614
101283
101340
101168
101324
101210
101103
101182
103609
101522
101362
103115
100960
101227
104376
101325
101497
104310
100937
101325
101124
101886
101331
101311
104177
101290
101680
101039
101427
101168
101204
101235
101107
101439
101299
101276
101325
103595
101641
103774
106541
101206
105249
104796
103186
101312
101218
106887
101641
101325
101338
101079
101325
101325
101204
101624
101280
101572
101021
101325
101032
101283
101361
106721
101227
101339
101340
101440
104347
101527
101131
103787
101345
101327
101325
101325
101325
101256
105098
101325
101280
101048
104305
100962
101765
101325
101191
101270
101374
102298
101325
101325
103655
101343
101583
101263
104049
101169
101325
100977
101307
101138
101116
101748
101325
104948
104156
101163
101325
105407
101058
101475
101264
105194
101535
101568
101761
101826
101325
101241
101286
101564
101325
101325
101054
101244
101156
101325
101068
103019
101317
101325
101199
101290
101178
101159
101325
105416
103388
101187
101183
101325
101143
101281
101172
101085
101236
101282
102582
101231
101312
101242
101152
101365
101190
101325
101296
101239
101206
101249
101323
101833
100944
101325
101258
101379
101325
101325
101276
103746
101292
101156
101312
101058
101100
101151
101230
101325
101248
101301
101274
101159
101402
101374
101243
101363
101292
101297
100740
101205
101152
101202
101193
101325
101331
101402
100966
101215
101328
101188
102707
101337
101374
101029
101415
101315
101303
101712
101475
101302
101092
101097
100868
101080
101289
101343
101211
101112
101325
100993
101314
101244
101325
101210
101366
102277
101320
101347
101325
101325
101045
101324
101236
101034
101325
102066
101174
102002
101173
100967
101049
100994
101325
101118
101209
101251
101344
100913
102802
101256
101248
101227
100820
101228
101325
100888
101325
101122
101289
101223
101636
101421
101390
101325
101581
101201
101365
101147
101147
101223
101470
101234
101320
101181
102045
101131
101116
101325
101181
101238
101267
101203
101323
101198
101223
101365
101354
101336
101199
101280
101348
101324
101288
101092
101505
101374
101040
101325
101173
101306
100725
101289
101282
101115
101233
101225
101358
101155
100939
100888
101515
101621
101604
101401
101237
101734
101466
101307
101390
101926
101466
101054
101325
101368
101052
101773
100929
101172
101325
101282
101477
101099
102514
101286
101038
101710
101325
101262
101198
101174
101168
101206
101037
101164
101204
101317
101031
101272
101361
101154
101261
101189
101265
101325
101238
101115
101187
101074
101200
100816
100735
101412
101146
103137
101325
101264
101252
100998
101247
101274
101234
101107
100755
103695
101087
101358
101325
101633
101093
100660
101210
101203
101175
101250
101244
101325
101315
101325
101231
101325
101325
105089
101312
101134
101325
101182
101150
101381
101043
102115
101429
101216
101205
101255
101272
101325
101366
101252
101325
101172
101233
101225
101302
101325
100888
101325
101190
101251
100860
101325
101321
101325
101370
101252
101305
101325
101325
101451
100987
100879
101007
101170
101489
101325
101325
101342
101411
101325
101103
101216
101520
101287
101280
102293
101450
101161
101498
107966
101476
101325
101310
101283
101426
100886
100814
100997
101143
101212
101148
101325
101325
101173
101157
101173
101219
101142
100833
101325
101431
100731
101324
101325
101325
101121
101325
101320
101265
101167
101481
101315
101327
101719
101296
101420
101325
101325
101325
101601
101394
101244
101325
100854
101221
101404
101404
101325
101188
101109
101445
101342
101275
101325
101442
101265
101119
101325
101325
101445
101147
101481
101056
101325
101325
101167
101148
101264
100996
101314
104979
101104
101030
101257
101291
101057
101361
101358
101095
101006
101307
101325
102155
101287
101414
101312
103847
101270
101220
101215
101264
101280
101227
101325
101294
101185
101246
101366
101630
101325
101209
101235
101262
101325
101188
101325
101308
101334
101387
101218
100865
101146
101154
101149
101205
105077
101322
101331
101234
101184
101325
101151
101176
101233
101581
101262
101233
101305
101296
101149
101325
101200
101325
101065
101322
101307
101206
101293
101262
101155
101177
101295
101325
101068
101325
101289
101203
101145
101325
101325
103760
104435
101167
101195
101325
101442
101087
101262
101211
101604
101325
103626
101320
101661
101322
101190
101121
101266
101355
101217
101325
101281
101396
101060
101196
101263
101092
101344
101118
101360
101350
101699
101160
101358
101279
101325
101129
101325
101239
102811
101109
101116
101226
101325
101325
101068
101172
101325
101052
101937
101154
101325
102180
101325
101202
101325
101325
101244
101253
101325
101226
101211
101325
101249
101316
105694
101247
101261
101535
101325
101285
101396
101321
101222
101109
101103
101237
101168
101259
101050
101168
101343
101247
101237
101163
101325
101325
102154
101220
101325
101253
101325
101148
101042
101325
101499
101325
101218
101593
101415
101225
105228
101325
101236
104813
101271
101424
102095
101120
102120
102184
102197
101212
101245
101457
101265
101325
101436
101183
101195
101506
101121
101635
101161
101316
102239
101177
101433
101192
106587
101325
101325
106531
101398
101325
101261
101366
101580
101325
102231
101288
101083
101163
101348
101325
102939
101325
101843
101224
101325
101054
101087
101180
101533
100877
101437
101359
101307
101528
101489
101314
101242
101580
101102
101325
101191
101258
101324
101791
100977
101467
101727
101294
101166
101320
101237
101251
101221
101690
101247
103132
101297
101055
101325
101325
100743
101325
101257
101554
105200
101094
101605
103536
101317
101156
101460
101247
101298
101248
101426
101333
101143
101072
101298
101304
103344
101872
101260
101243
102024
101136
101260
101283
101253
101136
101333
101159
105525
101220
101325
101254
101589
101325
102632
101295
101027
101254
101477
100907
101050
101189
101232
101123
101160
101318
101312
100967
101231
102397
101325
101581
101277
101476
101433
101237
101204
101093
101533
101104
101290
101285
101293
101279
101372
101480
101329
101588
101389
101186
101494
101248
101288
101127
101073
101077
101112
101221
101213
101188
101295
101167
101273
100896
101325
101168
101325
101358
101252
101118
101325
101309
101321
101308
101727
101183
101956
101891
101325
101846
101316
101962
101325
101325
101325
101185
101325
101325
101084
101231
101055
101274
101325
100953
101244
101131
101197
101324
100989
100970
101295
102763
101275
101145
102229
101334
101192
101190
101213
101325
101679
101638
101377
101714
101292
101237
101249
101039
101164
101226
101195
101177
101249
101214
101156
101365
101303
101475
101060
101338
101608
101617
101424
103946
101023
101319
101647
101383
101206
101639
101315
101334
101371
101203
106916
101040
101088
101325
101094
101334
101325
101114
101325
101248
101940
101350
101325
101229
101325
101098
101260
101261
101255
101258
101097
101331
101306
101249
101250
101233
101305
101068
101289
101238
101296
100866
101206
101291
101083
101246
101325
101149
101459
101202
101138
101445
101286
101330
101649
100995
101949
101231
101051
101196
101264
101332
100905
101069
101228
101328
101207
101356
101594
101241
101323
101110
101164
101210
101149
101533
101237
101002
101193
101212
101196
101195
101310
101395
101349
101325
101101
101283
101191
101325
100757
101407
101373
101034
101091
101153
101591
101548
101459
101346
101272
101567
101244
101575
101302
101294
101358
101428
101289
101704
104482
100996
101325
101608
101079
101325
101325
101120
101325
101249
101256
105192
101689
101455
101296
101666
101108
101289
101325
101068
101325
101168
101814
101091
101230
102784
101270
101105
101249
101524
101557
101168
101151
101166
101257
101186
101325
101167
101346
101228
101325
101167
101254
101144
101194
101099
100993
101678
101246
104080
102694
101325
101325
101176
101498
102018
101325
101324
102891
101788
101283
103279
101660
101396
101297
101198
101152
101164
101532
101196
101366
101643
101821
101325
101281
102452
105290
101170
101698
103229
101223
101212
101109
101160
103042
101469
101112
101178
101300
101281
100946
101261
101356
101293
101224
101203
101199
101211
101173
102588
104204
101325
101290
101325
101479
101218
101322
101298
100916
101155
101283
101360
101336
101279
101297
101232
102174
101324
101186
101070
101246
101655
101325
101302
101247
101219
101786
101234
101404
101396
101334
101268
105253
101522
100961
101293
101296
101267
101085
100977
101161
101443
101587
101443
101287
101324
101374
101424
101149
101246
101085
101335
101356
101454
101045
105068
100917
101165
101263
101175
101638
101188
101239
101206
101055
101445
101464
101165
101211
101921
101632
101133
101157
101270
101517
101179
101353
101114
101698
101136
101334
101158
101403
101450
101512
103213
105418
101278
101474
101401
101509
101438
101113
101191
101150
101374
101251
101336
101369
101692
101155
103874
101273
101349
101364
101108
101295
101225
102548
102157
101558
101342
101180
102121
100944
100986
101904
101766
101370
101333
101240
101211
101108
101453
101251
101325
101195
100966
101325
101514
101283
101311
101482
102363
101969
101013
101045
101347
101259
101137
101339
101253
101363
103723
101199
101359
101232
101138
101274
101579
101131
106966
101225
103348
102746
101509
101348
101005
101468
101317
101350
101448
101513
101350
101193
101405
101304
101178
101284
101209
101136
101299
101242
101231
101235
101164
101252
101191
101052
101136
101281
105934
101132
101163
101233
101311
102969
101229
101435
101325
101058
101038
101301
101164
101337
101066
101190
101520
101417
101230
103263
101161
103514
101235
101395
101366
101402
101288
100987
101221
101325
104369
101325
101325
101325
101325
101325
101325
101178
101069
101325
102724
102676
101325
101325
101247
101181
101147
105753
101171
101238
101244
101325
101325
102683
102737
101325
101224
101252
101235
101325
101325
101325
101221
103385
101324
101325
101325
101323
101325
101226
101276
103121
101325
101287
101237
101325
101325
101403
101129
101152
102420
101172
101325
101315
101107
101311
101325
101320
101325
101325
101325
101325
101324
102143
101325
101182
101324
101129
101325
101325
101325
101320
102355
101264
101064
101292
101325
101325
102416
101043
101237
101258
101325
101325
101325
101305
101325
101325
101325
101325
101310
101324
101325
101325
101291
101325
101325
101325
101325
101325
101612
101325
101325
101325
101325
101071
101325
101319
101325
101263
101310
101325
101391
101279
101325
101239
101810
101321
101295
101252
101556
101363
101008
101606
101325
101672
101175
101148
101325
101294
101310
101325
101321
101259
101325
101325
101309
101325
101325
101325
101325
101325
101325
101831
101792
101325
101128
101590
101325
101112
101325
101176
101325
101325
101325
101325
101325
101325
101325
101325
101316
101325
101471
101325
101158
101324
101240
101325
101325
101308
101325
101322
101325
101247
101274
101216
101072
101279
101325
101200
101448
101325
101325
101325
101325
101325
101325
101523
101325
101274
101248
101325
101325
101325
101325
101325
101325
101154
101306
101325
101325
101325
101325
101288
101325
101325
101136
101389
101159
102514
101101
101439
101257
101337
101282
101325
101540
101243
101228
101294
106057
101333
101192
101440
103495
101624
101330
101341
101325
101043
101251
101455
101367
101450
101236
101268
101389
101944
102740
102499
100964
101325
101173
110682
101347
101107
101242
101188
101325
101012
101325
101321
101325
101060
101105
101427
101315
101077
101220
101033
103330
101562
101198
101327
100974
101562
101170
100939
101424
101097
100946
101276
101190
101129
101181
101611
101236
101295
101187
101274
101398
101325
101325
101325
101374
101248
101232
101325
101325
101733
102624
101227
101245
101278
100969
101015
101317
101294
101324
101185
101275
101350
101250
101173
104186
87119.8
101654
101272
101236
101160
101311
101146
101286
101067
101218
101380
101192
101547
101350
101296
101325
101612
101470
101214
101284
101302
101390
101250
101066
102392
101218
101460
101491
101224
101251
101060
101086
101108
101192
101325
101300
101038
101172
101163
101349
101046
101231
101401
101309
101296
101295
101171
101185
101117
101228
101251
101262
101091
101033
100965
101300
100639
101325
101209
101320
101026
101268
101252
101325
101355
101266
101339
100968
101069
101475
101262
101186
101390
102252
101165
102650
101325
101325
101161
104429
101249
101210
101194
101334
101350
101458
101110
101081
101325
101067
101256
101324
103174
101241
101605
101212
101165
101147
101209
101490
101376
101101
101304
100986
101143
101325
101072
101138
101276
101461
101275
101324
101263
101329
101247
101267
101222
100869
101323
101613
101265
101223
101215
101308
101066
103646
101498
101325
101506
101738
101325
101070
101166
101276
101276
101325
101520
101077
101183
101155
101242
101187
101183
101215
101261
101383
101185
101318
101633
101471
101094
100424
101228
101419
101300
102643
101295
101136
100944
101325
101625
101095
101375
101211
101088
101325
101103
101325
101325
100823
101228
101197
100999
101325
101325
101325
101178
101218
101195
101314
101720
100977
101205
102200
101325
101272
101575
101325
101373
101150
106468
101325
101325
101101
101116
101148
106201
101324
101053
101253
101219
101275
102314
101321
101216
101363
101151
101152
101233
102667
101192
102287
101062
101183
100820
101178
101234
101325
101166
101316
101064
101013
101138
101206
101360
101325
101117
101383
101211
101415
101265
101262
101144
101146
101350
101255
101279
101640
102532
101240
102704
103717
101222
101199
101239
101311
101788
101262
101851
103263
101270
102546
101325
100999
101350
101132
101461
101206
101135
101259
101489
101201
101196
101762
101325
101341
101440
101276
101115
101325
101240
101325
101325
100949
101023
101290
101325
101040
100945
102429
101325
101139
101389
101325
101587
101416
101054
101351
102760
101955
101429
101221
101265
101166
101343
100737
101076
101034
101200
101140
102264
101405
101155
101790
101332
103148
101149
101266
101090
101067
101146
101448
101348
101209
101211
101247
101000
104777
101168
101183
101326
102257
101151
101329
102095
105264
101472
102486
101940
101476
101116
101154
101074
102592
103590
101194
101287
101005
101214
101196
101405
101332
102426
101324
101248
101367
101279
101253
101421
101206
104851
102981
101403
102241
101276
101209
101322
101410
101318
101277
101102
101532
101729
101123
101236
101582
102100
101480
102260
101550
101215
102585
101125
101502
101168
101184
101093
101095
102565
101137
101511
101127
101340
101065
101360
101196
101363
101699
101556
101763
101672
101325
101984
103428
101396
101233
101961
101528
101813
101795
101213
101050
101276
101367
101345
101420
101451
101107
101063
101201
101224
101167
101294
101262
101164
101202
101149
101192
101247
101043
101194
101094
101659
101183
101305
101292
100996
101244
103787
101080
101248
101778
101505
101347
102403
104012
101055
101114
101839
101318
101996
101662
102342
101433
101549
101246
102895
101406
101470
101433
102599
102560
101621
103399
102998
101325
101111
101095
101401
101522
101624
100873
101183
101424
101776
102669
101652
101250
101345
101069
100885
102385
101178
102418
101589
101249
101348
100928
101572
102311
102476
101171
101329
101447
100980
102033
101088
100956
100895
102477
101334
101297
101161
101113
101621
101260
101125
101115
101283
102542
102706
102405
101325
102086
101615
101870
102222
103590
101265
101159
101312
102585
101325
101962
101532
101325
101375
101019
101281
101027
101090
105193
101006
101532
101272
101125
101451
101379
101219
101195
101410
102018
102148
101240
101274
101506
102180
101118
102178
101327
101237
101565
101412
101471
101410
101675
101300
101371
101211
102393
101325
101258
103228
101081
102350
101308
101147
103271
101265
101691
103702
101815
102064
101273
101391
102039
102317
101066
101325
101820
101303
101373
101281
102072
101499
101024
101537
101279
101669
101377
101205
101785
101764
100960
101153
101437
101313
102641
101323
100981
101413
101003
101098
101239
101236
101113
101285
102509
101154
100942
101011
101118
102510
101409
100856
101182
101440
101323
101266
104776
101454
101018
102447
101094
100833
101716
101588
101208
101292
102529
101325
101287
101276
101461
101217
101013
101256
101313
101410
101269
101528
101368
101468
102254
101191
104260
101264
101390
101316
101042
103730
102484
101630
102306
101681
102591
101491
102192
102529
101346
101271
101135
101020
101406
101604
103553
104777
101298
101211
101043
101298
102461
101154
101167
101099
101916
101325
101154
102461
101972
102586
101435
101206
101006
101860
101894
101141
101450
101334
101900
101267
101478
101079
101176
101079
101188
101417
101276
101001
100776
102064
102111
102134
101254
103189
101072
101182
102122
101012
101160
101449
101135
101316
101019
102232
101214
101060
101297
101347
102133
101249
101479
101143
101636
101284
101233
101176
101342
101193
101291
101884
101177
101997
101074
101216
101257
102809
101220
101335
102272
101436
101461
101289
101110
101427
100936
101381
102306
101052
101278
101267
101204
101331
101229
101219
101376
101239
101350
101180
101304
101169
101309
101579
101133
101268
101257
101210
101263
101311
101210
102182
101205
101351
101266
101108
101342
101268
100895
101288
101243
101121
101283
101231
101336
101351
100278
101340
101318
101292
101346
100908
101006
101181
100923
101164
100995
101119
101069
101258
101325
101244
103273
101238
101157
101266
101120
101029
101237
100971
101288
101128
101241
101234
101278
101232
101020
101143
101136
101053
101319
101034
101335
101351
100942
102083
101230
101119
101197
101244
101488
101596
102124
101254
101325
101873
101195
101204
101705
101652
101286
101110
101539
101216
101236
102027
101193
101817
101365
101222
101594
101136
102126
101250
101909
101179
101171
101216
101132
101322
101453
101433
101771
101412
101348
101369
100955
103147
102014
104037
101790
101417
101487
101091
101180
101527
101343
101419
101170
105738
101344
101152
102105
101238
101223
100950
101103
101295
101432
101169
100988
101540
101119
101887
101163
101325
101091
101187
101132
101884
101508
101906
101444
101538
101266
100999
101409
102559
101007
101383
101226
101069
101335
101430
101278
101307
101422
101235
101325
101055
101325
101341
101436
100994
101256
100696
101170
101128
101332
101276
100990
101432
101513
101155
101366
101582
100899
101492
101313
101357
101442
101325
101321
101858
101141
101182
101324
101309
101141
101180
101329
101202
101120
100953
101531
101014
101125
101406
101018
101313
102610
101049
101593
101277
101315
101527
101058
101770
101293
101325
101482
101405
101474
101483
101325
101337
101209
101660
101153
101141
101325
101250
101393
101267
101504
101329
100989
101217
101225
101273
101223
101545
101182
101373
101146
101325
101207
101311
101101
101463
100749
101043
101525
101286
101163
101364
101364
101434
100728
101098
103189
101128
101259
101162
101532
101095
101098
101132
101624
100958
101289
101121
101063
101363
101059
101168
101372
101323
100686
102281
101551
101396
101246
101495
101629
101405
101001
101325
101394
101485
100741
101199
101071
101035
101390
101918
101216
101250
101531
102860
101522
101053
101376
101419
101185
101325
101325
101200
101226
101325
101077
101200
101330
101325
101258
101325
101417
101325
101323
101334
101711
101325
101175
101153
101325
101077
101325
101325
101325
101325
101325
101325
101170
101043
101201
101171
101106
101261
101099
101236
101087
101222
101231
100964
101169
101157
101025
101122
101552
101309
101321
101190
101118
101254
101131
101167
101239
101044
101020
101375
101288
101315
101153
101519
101031
101179
101244
101206
101161
101203
101169
101290
101046
101316
101197
101762
101371
101328
101506
100982
101435
101325
101445
101309
101226
101136
101349
101254
101325
101448
101205
101260
101222
101325
101325
101489
101528
101681
101196
101325
101325
101110
101262
101325
101325
101325
101005
101215
101325
101325
101325
101325
101325
101325
101325
101045
101257
101325
101323
101325
101485
101325
101433
101325
100988
101325
101325
101318
101201
101325
101319
101324
101325
101325
101236
101621
101325
101325
101240
101124
101325
101325
101325
101325
101044
101237
101325
101285
101550
101078
101324
101325
101076
101334
100983
101325
101138
101325
101325
101219
101378
101407
101394
101242
101325
101325
101120
101325
101325
101325
101100
101248
101325
101325
101325
101325
101325
101325
101325
101231
101178
101325
101241
101325
101296
101206
101358
101325
101325
101123
101325
101325
101122
101272
101325
101591
101325
101051
101279
101325
101134
101241
101256
101247
101103
101325
101325
100939
101324
101325
101325
101310
101325
101318
101319
101325
101325
100977
101174
101228
101264
101250
101337
101426
101228
100950
101422
101180
101265
101243
101137
101320
101325
101278
101378
101189
101423
101325
101260
101068
101290
101138
101174
101242
101231
101223
101211
101368
101325
101219
101186
101319
101325
101187
101459
101325
101255
101023
101314
101164
101325
101183
101032
101353
101278
101257
101325
101325
101167
101288
101274
101166
100996
101206
101076
101154
101200
101223
101274
101052
101220
101247
101277
101312
101171
101316
101279
101307
101273
101325
101082
101154
101187
101325
101177
101285
101190
101237
101160
101106
101225
101157
101128
101184
101008
101324