/*--------------------------------*- C++ -*----------------------------------*\
| =========                 |                                                 |
| \\      /  F ield         | OpenFOAM: The Open Source CFD Toolbox           |
|  \\    /   O peration     | Version:  2312                                  |
|   \\  /    A nd           | Website:  www.openfoam.com                      |
|    \\/     M anipulation  |                                                 |
\*---------------------------------------------------------------------------*/
FoamFile
{
    version     2.0;
    format      ascii;
    arch        "LSB;label=32;scalar=64";
    class       volVectorField;
    location    "0.35";
    object      U;
}
// * * * * * * * * * * * * * * * * * * * * * * * * * * * * * * * * * * * * * //

dimensions      [0 1 -1 0 0 0 0];

internalField   nonuniform List<vector> 
32842
(
(-0.0277784 -0.0477396 -0.0658882)
(0.680454 0.139593 -0.602403)
(-2.40197e-08 -3.08608e-08 -1.1831e-07)
(-7.42016e-09 8.74699e-08 -3.25842e-07)
(-1.74087e-14 1.58445e-12 8.46512e-13)
(2.76941e-05 -6.28966e-07 -0.000127598)
(8.90843 27.2135 -16.4323)
(6.82086 -6.70646 5.36511)
(-1.40057e-12 6.99976e-13 -5.203e-13)
(-1.74139e-05 -0.000808344 -0.00333803)
(5.29732 23.4372 -2.94691)
(1.13957 -15.4686 5.8793)
(-0.00360225 -0.120423 -0.382801)
(-9.36216e-13 -1.61703e-12 2.74609e-14)
(3.83699e-13 6.14934e-13 -1.4749e-13)
(-0.00629072 0.261428 0.0420509)
(0.00478032 0.0267829 -0.128324)
(0.000209904 -5.14513e-05 -0.000246177)
(0.0376265 -0.0971525 -0.0298954)
(-1.49802e-12 1.58751e-12 -4.00972e-14)
(8.57953e-13 -1.03774e-12 4.78663e-13)
(0.0366951 -0.130181 -0.237463)
(2.90938e-12 -7.1766e-12 -2.86986e-11)
(-8.40173e-13 7.93677e-13 -8.2447e-13)
(0.0783816 -0.0760993 -0.212328)
(4.16442e-07 2.1489e-07 -6.81004e-07)
(5.02763e-06 4.5878e-07 -3.02069e-05)
(6.89047e-13 -9.53474e-13 -6.46568e-13)
(9.14971 0.0162944 1.5623)
(-0.0104645 -0.0737178 -0.208012)
(11.4028 -2.04355 3.14522)
(1.28234e-12 -2.84866e-13 1.39113e-12)
(-0.098044 -15.8488 -1.74027)
(0.0793438 -0.16885 -0.359317)
(0.505045 -16.896 -2.44775)
(-0.782265 -1.24139 -1.78489)
(0.250638 0.0915969 0.0607863)
(0.0574939 -0.0595446 -0.0345305)
(-0.0971398 -0.220194 -0.438661)
(0.112394 -0.0133217 -0.144184)
(8.02368e-07 -7.22491e-07 -7.25222e-06)
(-1.83793e-09 2.57478e-10 -1.38212e-08)
(5.34109e-10 -1.14235e-10 -5.88674e-10)
(-9.83677e-13 8.25794e-13 1.61029e-12)
(-0.163038 -0.378396 -0.0980875)
(0.0312701 -0.0198452 -0.208303)
(-8.64133 1.52153 0.813901)
(0.126576 -0.0912049 0.116539)
(4.32235e-13 -8.85147e-13 -2.2768e-12)
(-11.4661 2.31675 2.3246)
(0.380903 -20.5651 0.720923)
(3.71334e-12 2.47477e-11 -5.2975e-11)
(0.0489871 -0.0133427 -0.06797)
(3.23351 -0.887036 0.519716)
(-1.00875e-10 -7.49911e-12 -2.4123e-10)
(0.770534 0.677465 0.90907)
(1.42294e-07 2.5156e-07 -8.12058e-07)
(4.5509 12.5211 -2.14063)
(-2.43186e-13 -3.19341e-13 1.91932e-12)
(1.33734e-12 -3.15544e-13 -1.24687e-13)
(-7.91223 -4.97268 -1.93284)
(-0.106398 0.23926 0.222483)
(2.00964e-13 -5.37071e-13 -8.7617e-13)
(-1.41476e-13 -1.0269e-12 -2.11837e-12)
(-0.016602 -0.0763353 -0.389078)
(-15.7085 -2.03817 -5.08292)
(-3.7839e-10 -1.04657e-10 -7.00518e-10)
(-0.0509578 0.0645735 -0.364353)
(1.09938e-12 -7.89619e-13 -2.42033e-13)
(-0.214395 -0.132226 0.147219)
(-9.81374e-13 2.36512e-13 -1.90702e-12)
(-2.71347 1.50555 -0.275575)
(5.54159e-13 -1.78473e-13 -1.2353e-12)
(-6.92806e-13 3.48329e-13 -7.02035e-13)
(-6.13208e-10 1.49099e-09 -1.94833e-08)
(-0.0393533 0.136846 -0.0553024)
(12.7076 -3.7341 3.18368)
(4.88548e-09 -1.65668e-09 -2.89206e-08)
(-0.000864842 -0.00630605 -0.0193859)
(-0.297271 -3.49272 1.35035)
(9.01201e-09 6.18853e-09 -1.49001e-08)
(6.08253e-09 9.53067e-09 -9.49897e-08)
(7.97508e-09 -2.25803e-09 -6.70426e-08)
(6.67453e-13 6.51211e-13 8.56381e-13)
(5.74278e-12 -2.98794e-11 -5.23595e-11)
(5.74759e-10 3.52221e-09 -6.4607e-09)
(-4.85389e-10 1.07102e-09 -1.39869e-08)
(0.800614 0.452921 0.11547)
(-1.06861 -9.56127 4.31524)
(-1.9964e-05 0.000290743 -0.00141978)
(-0.00505772 -0.00816842 -0.0252333)
(-4.42699e-07 1.03728e-06 -2.29002e-06)
(-5.95731 2.07303 0.70564)
(8.6051e-14 7.18409e-13 1.0064e-13)
(2.13599e-07 2.39474e-07 -1.483e-06)
(-0.147893 0.00737901 0.0778395)
(0.0049042 -0.0163306 -0.0208784)
(-7.71561e-14 5.81565e-14 -3.18185e-12)
(1.20488e-12 9.03626e-13 5.57254e-13)
(-1.0266e-12 4.84664e-14 2.04071e-12)
(-1.23445e-12 3.38765e-13 8.80941e-13)
(0.303092 0.105736 0.0882791)
(-1.0928 0.361332 0.117737)
(4.68973 1.27111 0.912158)
(-0.0171295 -0.0173147 -0.0337575)
(0.0389906 0.0284688 0.000996318)
(-3.17423 13.5191 0.533552)
(-0.955351 0.847045 0.105973)
(0.17093 -0.0311789 -0.167517)
(0.034002 0.362746 0.380932)
(0.00101575 -5.1711e-05 -0.000675416)
(0.000523453 -0.00217214 -0.00868507)
(3.15036 -8.9712 -9.31179)
(-6.14374e-06 6.0535e-05 -0.00107239)
(-0.63015 0.282259 -0.110379)
(3.32122e-13 2.65445e-13 3.54634e-13)
(1.67145e-13 7.70722e-13 9.59473e-13)
(0.201012 -0.310825 -2.06384)
(0.249897 0.0447826 -0.184133)
(-0.044858 0.18254 -0.0690329)
(-0.00333362 0.00703034 -0.0133246)
(-0.000522426 -0.00133809 -0.00202057)
(-2.53453 14.2891 0.86368)
(1.26334e-07 -3.65478e-08 -7.03935e-07)
(0.321493 -0.247286 0.680388)
(4.42671e-06 -1.1675e-06 -1.46185e-05)
(0.0160801 -0.00879563 0.0224761)
(-0.0138884 -0.0504884 -0.227884)
(-0.876418 10.2853 0.517903)
(6.11541e-08 -1.60795e-07 -3.17288e-07)
(-1.18491e-09 1.2142e-08 -1.47738e-07)
(-1.5038 -0.366535 0.739194)
(-0.122513 0.0688952 0.123355)
(0.196075 0.0426664 -0.0188731)
(-0.173295 -0.041615 -0.104312)
(0.41572 0.0161405 0.315906)
(-1.745 -0.787604 1.92525)
(1.6872 3.01557 0.384967)
(-0.0133875 -0.167207 -0.135764)
(0.0306036 0.328309 0.00385799)
(0.176399 0.120839 -0.376597)
(-0.0109898 0.0886399 -0.118099)
(-5.28567e-13 1.73457e-12 1.6934e-12)
(-1.65522 -1.25993 0.678683)
(-0.240386 -0.0661605 -0.139019)
(-0.0189982 0.0500936 -0.147184)
(16.3525 -0.428504 2.43141)
(-0.0474115 0.00307055 -0.111315)
(1.73469e-12 2.89912e-13 -7.60204e-13)
(0.00879277 0.0188524 -0.0716335)
(-0.33894 0.585023 0.0756139)
(0.409342 0.0215696 -0.0226647)
(0.022926 -0.0206308 -0.0770293)
(2.2103 8.61378 0.691844)
(0.00551807 0.040989 -0.0801556)
(1.94539e-10 5.62279e-10 -1.62645e-09)
(-3.89446e-09 -6.91426e-09 -1.45367e-07)
(-0.0648984 -0.0457787 -0.197388)
(-0.0282088 0.10318 -0.0330907)
(0.000315918 -0.000329475 -0.000981437)
(0.0159886 -0.00276783 -0.00427497)
(-8.53e-09 2.38956e-09 -3.25956e-08)
(-2.84804e-13 1.4104e-12 1.37275e-13)
(4.13552e-09 1.1618e-08 -1.61809e-08)
(-0.0234801 -0.135839 0.00489073)
(-0.115703 -0.133903 -0.319338)
(-4.41071e-09 -3.19967e-09 -2.20193e-08)
(0.0294232 -0.0164572 -0.290583)
(0.0228105 -0.15934 0.0746623)
(13.2035 3.77059 1.12812)
(0.582414 -0.601885 3.02705)
(-0.0530588 0.0121067 -0.0470622)
(-0.939332 -0.20319 2.50221)
(1.39981e-12 1.55436e-12 -2.77873e-12)
(-2.00135e-09 2.74049e-09 -8.59244e-09)
(-1.13608 1.00486 2.28131)
(-0.00338146 0.0237284 -0.404741)
(-0.325111 -0.179446 0.301747)
(1.24105e-10 6.53212e-11 -2.40226e-10)
(-0.00116871 -0.000353299 -0.00554137)
(0.045073 -0.0790744 0.00777859)
(-0.133391 0.0700741 -0.226607)
(-0.000747472 -0.107092 -0.221392)
(1.92966e-07 -1.37968e-06 -6.61943e-06)
(1.16527e-12 -6.3213e-13 7.16886e-13)
(-0.0508131 0.0458142 -0.202965)
(0.031526 -0.279342 -0.0836811)
(-0.0405019 -0.00208466 -0.0588709)
(-0.00433219 0.057283 -0.160218)
(-0.0334117 -0.148663 -0.536659)
(-0.112548 -0.0750638 -0.26479)
(0.451361 0.153387 0.308373)
(-6.88664e-10 -2.07635e-09 -6.97703e-09)
(-5.1717e-10 4.11562e-10 -1.88361e-08)
(1.15232e-12 9.76605e-13 1.14405e-12)
(-0.0640702 0.12272 -0.5382)
(0.00685318 -0.014947 0.0537311)
(-0.0657974 0.0116233 -0.52192)
(1.17015e-06 -1.22286e-07 -1.6016e-06)
(-0.011844 -0.00658066 -0.0291102)
(-0.0175885 0.0711129 0.0336048)
(0.0873784 -0.0309567 -0.533273)
(-0.889191 0.708469 0.662971)
(-2.56533 -2.3704 -1.93878)
(3.00225 13.9318 -4.87131)
(-0.00255212 -0.0521946 -0.0294539)
(0.135729 -0.0115534 -0.0488694)
(-1.84279e-09 2.17754e-08 -1.27232e-07)
(1.49446e-07 3.34637e-07 -5.96931e-07)
(-0.0201771 0.188815 -0.0684956)
(-0.0746045 0.0813547 -0.20037)
(-0.232235 0.150622 0.184103)
(0.39539 1.39934 3.53519)
(0.0534488 1.45756 3.19142)
(-0.0153214 -0.0288745 -0.147486)
(-1.14279e-13 8.96878e-14 -3.28647e-13)
(-0.0221741 0.141558 -0.278617)
(0.113904 0.0260264 -0.035915)
(0.0175741 0.0279465 0.0624815)
(0.0425399 0.334637 -0.0496539)
(-0.895312 -0.0562185 -2.5439)
(-1.84571e-06 1.57205e-06 -3.14453e-06)
(-2.9182e-05 0.000176799 -0.000753334)
(-0.0372981 -0.033399 0.0310799)
(0.0151669 0.0265175 -0.0753788)
(-0.0828596 0.201253 0.00397314)
(-8.32845e-13 2.22522e-12 7.44635e-13)
(1.12944e-12 1.14481e-12 1.21829e-12)
(-0.00741205 -0.00749111 -0.158587)
(0.599655 -10.727 0.885206)
(-0.000615349 0.00116632 -0.00271094)
(0.00152928 -0.000238352 -0.00569367)
(0.177185 -0.005754 -0.317665)
(3.28294e-07 -4.90748e-07 -1.57499e-06)
(-1.28473 -3.7777 3.7816)
(5.04534e-06 3.79283e-05 -0.000261)
(-1.49067e-05 0.000156698 -0.000381165)
(-0.547719 0.428117 1.27412)
(-0.113851 -0.0661013 -0.224439)
(1.37331e-12 1.08587e-12 -1.66158e-12)
(-0.537176 12.6691 1.25204)
(-0.0102529 0.033257 -0.29002)
(-0.0610162 0.188096 -0.00106722)
(8.77692 1.35119 -0.534019)
(-0.103999 -0.0451637 0.030632)
(-0.264884 -0.143901 -0.0605211)
(5.06532e-13 9.74273e-13 -1.04643e-12)
(-6.88331e-06 -5.34991e-06 -2.04637e-05)
(-4.0303e-06 9.47336e-06 -1.32534e-05)
(0.0455281 0.0241216 -0.12814)
(-9.10846e-13 4.90952e-13 -1.9075e-12)
(6.86675e-06 1.16668e-06 -3.79485e-05)
(0.0159134 -0.105241 -0.150884)
(0.00339396 0.000149353 -0.0256663)
(-0.21094 0.0287578 -0.0980688)
(1.64192e-05 2.1741e-06 -0.000101424)
(-0.0733491 0.0498562 -0.344036)
(0.46542 0.896167 2.72445)
(-0.0584591 0.0507477 -0.118675)
(-0.104414 0.073344 -0.305493)
(7.62299e-05 1.24458e-05 -0.000162526)
(3.13768e-11 2.35188e-11 -1.21883e-10)
(7.73271e-13 5.1651e-13 3.68649e-13)
(1.64063e-06 -3.75356e-06 -1.37524e-05)
(-1.38972e-05 5.22973e-06 -6.06194e-05)
(-1.12599e-05 2.19921e-05 -4.71361e-05)
(-0.00089138 -0.000137576 -0.00187812)
(0.0328381 -0.104645 -0.317874)
(-0.090415 -0.115302 -0.0444551)
(-8.67034e-14 -7.72447e-13 1.14178e-12)
(2.49606e-05 0.000167011 -0.000632817)
(-3.41756e-06 4.63107e-08 -1.06142e-05)
(-8.36591e-05 4.3442e-05 -0.000368291)
(0.00721524 -0.00487654 -0.0222557)
(-4.9811e-05 1.73871e-05 -9.84885e-05)
(0.457159 -1.51582 1.51243)
(-0.13468 0.0446891 -0.026481)
(-0.267693 0.1782 0.124523)
(-1.17634e-07 -5.20812e-07 -1.67402e-06)
(0.010794 -0.0308003 -0.171422)
(-0.000364951 6.17183e-05 -0.00127989)
(3.41593 2.23159 -2.88029)
(13.6775 -1.77967 -0.503433)
(-5.5913e-11 -5.44585e-11 -1.18177e-10)
(-0.045039 -0.0900837 -0.127088)
(-0.0810293 -0.447846 0.615537)
(3.6222 3.46894 -2.88062)
(1.36779e-12 2.91404e-13 -8.14117e-13)
(3.25566e-06 -9.9175e-07 -0.000118895)
(-1.21963e-09 5.69453e-09 -2.04533e-09)
(20.1918 7.01762 0.556868)
(1.67468e-12 -1.09266e-12 -5.92134e-13)
(2.84581e-09 1.0528e-09 -6.27949e-09)
(-0.989501 7.4683 2.56308)
(-0.735337 14.7294 -0.223049)
(-0.417629 -0.560095 0.279511)
(3.81725e-09 -9.53311e-09 -1.99795e-08)
(-0.00145767 -0.00214062 -0.00719039)
(0.0670379 -0.249662 0.249088)
(-9.79305e-13 -9.18202e-13 4.21283e-14)
(-48.5629 47.9354 -25.0141)
(-0.000394511 7.94266e-05 -0.0012069)
(0.00475397 0.016337 -0.0800734)
(-0.010211 -0.0115017 -0.0516637)
(1.00213e-08 2.21758e-09 -9.42068e-08)
(-3.75136e-13 -5.87184e-14 -1.02477e-13)
(-1.45296e-12 -3.67559e-13 4.16509e-14)
(-2.70903e-12 2.74919e-12 -7.19771e-12)
(-0.0427571 0.0374245 -0.202855)
(0.00319072 -0.00107072 -0.00661653)
(0.00812042 -0.00397237 -0.133582)
(2.22253e-13 -4.05774e-13 -4.19264e-13)
(1.9038e-12 7.47088e-13 1.19005e-12)
(-0.00670648 -0.00508556 -0.0156052)
(-1.46855e-13 -1.47375e-12 -1.72656e-12)
(-0.0305718 -0.0335343 -0.0999837)
(-0.178577 -0.142988 -0.207218)
(0.161511 -0.0668722 2.30777)
(0.00025096 0.00929545 -0.0138682)
(0.0424386 -0.0536254 -0.0173019)
(-0.100365 -0.0203442 -0.0949543)
(-2.60549 -8.34803 -1.44246)
(-0.0158424 -0.0163305 -0.0462942)
(1.62665e-12 -1.02883e-12 -1.80445e-12)
(1.86747e-12 -9.02471e-13 -1.00859e-12)
(-0.0128865 0.00132784 -0.0766617)
(-0.110413 0.200701 -0.121113)
(-2.60077e-11 -4.64349e-11 -7.00347e-11)
(0.252399 0.0733792 -0.215316)
(-1.07756e-10 8.29583e-11 -2.88183e-10)
(0.146028 0.058437 -0.212615)
(1.77909e-12 5.50829e-13 1.84438e-13)
(-4.48684e-10 1.29846e-09 -2.93695e-09)
(-1.28973e-13 -1.40699e-12 6.93036e-13)
(0.080568 -0.178096 -0.314217)
(-1.56349e-07 -3.98355e-08 -6.42442e-07)
(-1.48334e-12 -2.38733e-12 -2.90706e-12)
(7.33107e-15 2.15191e-13 2.71098e-13)
(-9.65272e-13 7.62402e-13 1.12143e-13)
(0.0787895 -0.0371607 -0.190243)
(0.163099 0.0287263 -0.288623)
(-0.0402131 -0.034039 -0.122452)
(-0.279812 -1.17639 1.5936)
(5.44939e-10 -1.65264e-09 -4.1869e-09)
(1.28661e-12 7.18139e-13 -1.09808e-12)
(-2.25096e-12 -3.1842e-12 -6.32155e-12)
(5.91514e-07 5.56287e-07 -1.06455e-06)
(-4.92388e-13 -7.20978e-13 -7.24526e-13)
(-1.40213e-13 -2.20702e-13 -3.53079e-13)
(1.06093e-12 -6.67302e-13 -8.50454e-13)
(0.47743 0.0704148 0.140354)
(1.11695 5.72472 1.15038)
(0.119847 -0.0938424 0.0342685)
(7.35858e-13 -3.24108e-13 -2.51536e-13)
(0.000727745 -0.00105162 -0.00162373)
(-0.0815702 0.0143028 -0.190184)
(0.0776639 -0.0257444 -0.231907)
(0.0477196 -0.0618764 -0.238338)
(-0.00203291 -0.00356367 -0.0117455)
(0.113568 -0.0237142 -0.105359)
(-1.1581e-12 -1.0971e-13 -4.74785e-13)
(4.13411e-12 -1.11062e-11 -4.02949e-11)
(-0.0703395 0.0627861 -0.58047)
(-1.65886 15.0311 -2.9942)
(2.593e-05 1.80576e-06 -0.00017429)
(3.17204e-13 -1.20587e-12 1.33755e-13)
(3.32549e-11 8.39318e-11 -1.86589e-10)
(1.57683e-10 6.10932e-11 -3.82765e-10)
(-0.00706787 -1.52078 -0.463005)
(-9.81006e-13 3.77179e-13 1.12869e-12)
(-1.00646e-08 -7.09227e-09 -9.41568e-09)
(23.5435 -1.8856 -7.32792)
(-0.0224111 0.0520853 -0.258445)
(0.133363 0.0155567 -0.0699238)
(3.20219e-10 -6.82618e-10 -1.48791e-09)
(0.0530294 0.137777 0.0764937)
(0.0918051 0.0299363 -0.046585)
(-1.17054e-12 -5.79842e-13 5.6628e-13)
(-0.831131 1.53907 0.408715)
(5.92808e-11 1.21506e-11 -3.75878e-11)
(0.122402 -0.0276824 0.0576225)
(0.000246657 0.000898581 -0.0012423)
(0.0301442 0.0393163 -0.00733928)
(0.0765062 0.111374 -0.358418)
(-0.0511761 0.13076 -0.183111)
(-3.70011e-13 2.87431e-13 1.69654e-13)
(-2.05733e-09 1.5043e-08 -6.13191e-08)
(-6.8841e-07 -5.51393e-06 -1.23358e-05)
(-6.2592e-08 1.24483e-06 -9.27662e-06)
(-0.115754 -0.0147951 -0.228209)
(0.0383846 0.0773048 -0.114107)
(0.117112 -0.107824 -0.33229)
(-0.0308655 0.0125869 -0.0646692)
(-3.88831e-07 -2.92039e-07 -1.28107e-06)
(0.170234 -0.00263849 -0.0354384)
(2.54355e-13 -4.9365e-13 -5.12421e-14)
(-0.0910764 0.160637 -0.199128)
(-0.0477572 0.0190786 -0.0874778)
(-0.174901 0.0813044 -0.0813963)
(0.350013 0.0340424 0.135738)
(-0.0379143 -0.229307 3.85189)
(1.15959e-13 6.11109e-13 -6.44377e-13)
(0.0372755 0.134263 0.0550405)
(-0.0473069 0.0132522 -0.909269)
(0.149433 3.2426 3.68432)
(-0.188982 -0.527355 0.107256)
(0.0189855 0.133202 -0.240529)
(-0.101702 0.0303144 -0.145638)
(-2.04846e-07 1.23686e-06 -1.86148e-06)
(0.268081 0.00901622 -0.010008)
(0.0491421 -0.0319362 -0.224764)
(0.12286 0.135435 -0.335173)
(2.00897e-12 -1.3949e-12 8.69903e-13)
(0.118171 -0.0416496 -0.291311)
(-0.0347955 -0.0239557 -0.220699)
(-0.0394523 0.134887 -0.195422)
(0.0544529 0.0674028 -0.265802)
(-0.0721179 0.105644 -0.146433)
(-0.00371397 0.327659 0.0119649)
(8.45623 2.52118 -16.5189)
(0.239864 -0.0742851 0.277835)
(0.0802268 -0.277429 -0.201019)
(-6.32676e-08 4.83342e-08 -1.21317e-07)
(-0.0174083 0.0529433 -0.406158)
(32.1914 7.65949 -0.216838)
(-1.94419e-07 1.06615e-07 -3.52012e-07)
(0.0268939 -0.00254881 -0.10353)
(-1.6532e-09 -1.21172e-09 -3.6718e-09)
(0.102992 -0.0655606 0.0210354)
(-3.74146e-13 3.87506e-13 -1.55705e-12)
(-0.111449 0.123115 -0.110919)
(-7.95211e-14 5.00003e-14 2.74413e-13)
(3.82502e-07 -2.35171e-07 -1.65377e-06)
(-0.128661 -0.143575 -0.066106)
(-6.37566e-11 6.79147e-10 -1.98115e-09)
(-1.56145e-06 -1.67026e-06 -7.5364e-06)
(-0.00957985 0.11747 -0.133974)
(12.2433 -3.45175 -0.109352)
(-0.261053 10.5932 -3.29698)
(5.84882e-06 4.50185e-06 -1.097e-05)
(-0.000781757 0.00118364 -0.00360557)
(-13.3572 -1.19119 -0.144052)
(0.00366932 0.0103054 -0.120732)
(1.19291e-12 3.91282e-13 4.20309e-13)
(-0.0149634 0.00699701 -0.241428)
(0.0961931 -0.146077 -0.170504)
(2.11212e-12 3.96378e-13 7.61799e-13)
(-8.08139e-13 4.92669e-13 -1.4876e-12)
(-9.05264e-09 4.53178e-09 -4.78201e-08)
(-1.50253 0.869881 -2.37732)
(1.42595e-12 -6.56706e-13 -6.34335e-13)
(-0.0172485 0.0743949 0.138624)
(0.33652 -0.0275874 -0.0244921)
(-0.213765 11.0715 -2.49274)
(-2.35902e-12 1.37339e-15 1.22854e-13)
(0.122255 0.0813622 -0.259805)
(-0.0596389 -0.0481285 0.00196698)
(-5.14818e-13 -9.34773e-13 8.75846e-13)
(0.192666 -0.149881 -0.195588)
(0.0163188 -0.0488057 0.047584)
(-1.75237e-14 6.07057e-13 3.74941e-13)
(-1.94055e-12 -4.57457e-13 -5.32647e-13)
(5.46667e-09 -2.93955e-09 -1.90801e-08)
(2.92715e-10 1.45172e-10 -1.1458e-09)
(1.94642e-12 -2.6842e-12 -1.34607e-11)
(-0.327467 -0.0324524 -0.000671895)
(-0.0143071 -0.0521081 -0.132921)
(-2.40085e-13 -9.59898e-13 -1.65723e-13)
(-0.0536537 -0.121016 -0.301881)
(0.773669 0.623115 -0.0398225)
(4.91228e-13 -3.70743e-13 1.56803e-13)
(-4.47213e-13 1.22697e-13 -1.32769e-13)
(1.49933e-12 -6.07788e-13 -1.06382e-13)
(3.16451e-13 -4.14142e-13 -4.77102e-13)
(0.113002 0.130133 -0.238338)
(-8.04367e-13 -3.77539e-13 -7.88759e-13)
(5.2345e-13 4.52097e-13 -1.7037e-12)
(2.51318e-09 1.88424e-09 -4.63998e-09)
(-1.53209e-12 4.5773e-13 3.69891e-13)
(-1.48917e-12 1.42657e-13 -6.21821e-13)
(5.14812e-13 -1.77509e-12 1.03642e-12)
(-1.29842e-12 1.46239e-13 -1.83564e-12)
(0.249783 0.0227736 0.0897617)
(-6.88398 0.662713 0.985482)
(3.91664e-13 1.36486e-12 -2.49431e-12)
(0.00628481 0.00786791 -0.0272689)
(-3.51083e-13 -4.85761e-13 -1.19662e-12)
(-6.17189e-13 -2.55782e-13 -1.10824e-12)
(0.149714 0.2479 -0.296031)
(-1.38383e-12 -1.56844e-12 -5.64643e-13)
(-0.06036 -0.0806342 0.0788509)
(-0.0105295 0.478396 -0.179254)
(5.56929e-13 7.56978e-13 6.44446e-13)
(-0.218376 -0.456269 -0.220517)
(-0.0120326 -0.00834781 -0.00946741)
(-7.81744e-13 5.57604e-13 2.29405e-13)
(-0.00136643 0.000641433 -0.00319709)
(-5.1199e-13 -2.24817e-13 -9.50444e-13)
(1.35608 1.77241 0.447269)
(-0.0708574 0.00835109 -0.0236247)
(0.0837077 -0.118333 -0.313584)
(1.76815 3.82143 2.9153)
(0.0293957 -0.0145217 -0.0924481)
(1.00662e-12 -1.35312e-12 -9.66389e-13)
(-0.282807 -0.0164044 0.051341)
(9.67119e-13 -4.86195e-13 -1.65275e-13)
(-1.911e-12 -8.33207e-14 -1.66724e-12)
(8.45223e-05 -0.000234692 -0.000692201)
(2.60249 2.94283 2.0822)
(-0.0291815 -0.0137495 -0.0615843)
(-0.0869695 -0.16123 -0.326906)
(5.434e-13 -1.68716e-13 -2.53303e-12)
(-0.139727 -0.071005 -0.0227665)
(0.019895 -0.0146991 0.0416742)
(0.070287 -0.0525287 -0.241145)
(5.99665e-13 -6.37874e-13 -3.15666e-12)
(0.0524918 -0.0976437 -0.105265)
(0.0805718 0.142154 -0.398362)
(-0.488455 6.2119 1.79085)
(2.6529 13.6798 5.27957)
(-8.01135 5.78856 -1.06323)
(3.77284 1.24678 1.03074)
(-0.270752 3.4435 3.5466)
(-0.463488 1.69501 2.87433)
(-0.35877 8.89198 -0.515334)
(-0.169913 0.144739 -0.253641)
(0.100865 0.0981243 -0.351918)
(0.0144354 0.0423705 -0.0709045)
(0.084003 0.0821919 -0.240918)
(4.85969e-10 6.25757e-10 -2.22067e-09)
(11.9429 -2.86488 2.71487)
(3.63023e-12 9.3525e-12 -2.38648e-11)
(-1.38148 1.11595 0.469423)
(0.291266 -0.0108961 0.218273)
(-0.00507008 -0.000682767 -0.0329732)
(6.18461e-14 1.373e-12 1.36138e-13)
(-14.0123 2.19974 -6.0948)
(1.19406e-08 -2.31754e-08 -4.88385e-08)
(19.7927 1.62448 4.71737)
(-6.43856 -2.37681 -2.84072)
(0.116397 -0.265359 -0.19428)
(-0.30704 4.64577 0.920526)
(0.209007 -0.0531928 -0.0880747)
(0.0776473 1.40224 3.06551)
(0.054863 -0.00112624 -0.327683)
(6.29241e-13 -7.69867e-13 1.54269e-13)
(0.133493 -0.11748 0.0662607)
(-0.000422819 -0.000627406 -0.00134832)
(1.87355 3.04803 3.51748)
(-3.70546e-13 -1.66927e-12 -7.24712e-13)
(3.48975e-12 -3.8397e-13 -5.01963e-12)
(-0.0797417 -0.0152882 -0.248487)
(0.592932 15.317 1.84919)
(0.161653 -0.0603899 -0.407164)
(-0.171171 0.0207449 -0.0928279)
(-0.0107054 0.146441 -0.0863513)
(-0.0104518 0.0264679 -0.0675989)
(-4.00241e-06 -2.04146e-06 -5.6794e-06)
(-1.06166 14.812 0.754815)
(-1.24564 14.4405 0.549079)
(-2.2739e-11 -4.26546e-12 -5.01407e-11)
(-2.64286e-13 1.53981e-12 -1.17416e-12)
(0.207922 -0.134046 -0.116108)
(0.0203036 -0.00885303 -0.271885)
(-0.521665 15.456 3.28175)
(-1.70902e-12 -1.37253e-12 4.60258e-14)
(-0.0118603 -0.104375 -0.0978631)
(-0.0069076 -0.00289388 -0.0207826)
(-6.12811e-13 5.6236e-13 7.65663e-13)
(-1.87189 12.0219 -2.64235)
(-0.000895947 -0.00132467 -0.00313043)
(0.0312992 0.0312942 0.0011327)
(-8.53995 8.34746 2.90197)
(-8.81938e-13 2.78365e-13 3.00097e-13)
(-4.77607e-07 -1.38074e-07 -1.70076e-06)
(-0.182165 3.69678 -1.35031)
(-0.079408 -0.130068 -0.176236)
(-0.148119 -0.0311935 -0.0358707)
(-3.09718 8.96556 -4.07956)
(1.5743e-12 1.63722e-13 -7.95923e-13)
(-4.45491e-11 2.96852e-11 -2.36192e-10)
(1.32972e-12 1.59712e-12 -4.30179e-13)
(1.09651 2.03486 2.19292)
(-0.00027494 4.62608e-06 -0.0010802)
(7.20433e-13 1.91627e-12 7.94245e-13)
(4.78801e-13 -1.89311e-13 -1.36799e-12)
(0.0530248 0.0508891 -0.217561)
(-0.00197892 0.0509228 -0.15369)
(0.129319 -0.0178719 0.14646)
(8.09358e-13 2.55503e-12 3.3575e-13)
(0.000877194 0.0346716 -0.107148)
(7.17436e-13 -1.07385e-12 -4.90395e-13)
(0.0822531 -0.0586171 -0.168987)
(-0.707743 9.4898 -4.02453)
(-4.17168e-07 -8.24257e-07 -1.45429e-06)
(0.574403 0.210527 -0.194764)
(-3.3385 5.6003 -0.146582)
(0.102154 0.137546 -0.324309)
(-6.12998e-13 -6.30556e-13 -2.14613e-12)
(0.00200941 -0.000389642 -0.00771847)
(-1.42456 6.9372 -1.89207)
(-1.67139 8.57268 -1.7587)
(-0.951088 19.6066 -5.73642)
(0.0760946 0.019133 -0.204493)
(-13.8692 -1.47734 1.19552)
(-6.84068e-09 3.06271e-08 -1.10687e-07)
(-9.10573 -3.32973 3.6948)
(1.04511 0.352436 0.619919)
(-5.74904 -1.49006 1.19485)
(5.9839e-13 -4.87832e-13 -1.85817e-12)
(-0.000287433 -0.000100228 -0.00121836)
(1.36758e-12 -1.52717e-13 -1.93047e-12)
(-2.61663e-14 -8.45464e-13 9.33767e-13)
(-6.7323e-14 1.34065e-13 -1.15702e-12)
(-7.40065 2.59673 3.23294)
(-2.21359e-12 9.13884e-13 -7.04243e-13)
(0.0159811 0.141628 -0.241802)
(-8.33579e-12 2.67727e-13 -4.03929e-11)
(0.0187549 0.00763232 -0.12803)
(-2.00812e-13 -6.29896e-13 -1.19285e-12)
(-0.155813 -0.180438 -0.181911)
(0.0172799 -0.0273091 -0.127873)
(0.142469 -0.122841 -0.0785086)
(-9.72811 -0.782963 -4.14894)
(4.75809e-09 4.82959e-09 -7.31375e-09)
(0.0911788 -0.0361239 -0.0869043)
(5.82407e-12 -2.73215e-12 -2.28476e-11)
(-0.0330552 -15.0568 -1.8216)
(-9.34617 0.340882 1.10196)
(0.283005 0.815642 1.14217)
(-0.123639 -0.145607 -0.0241297)
(-9.33718 -0.362077 -3.10272)
(-0.000458111 -0.000114603 -0.000874902)
(-7.74884e-12 6.40856e-13 -6.92449e-12)
(-0.00222392 -0.0577444 -0.323861)
(-4.50796 1.87793 -1.57393)
(7.75863e-13 3.89451e-13 -4.4198e-13)
(-2.96096e-07 4.62104e-08 -5.0628e-07)
(0.0322975 0.0499878 -0.188666)
(-9.48602e-08 -6.92655e-08 -2.79495e-07)
(-9.77478 -0.556663 -2.6245)
(-1.09253e-11 -5.16118e-11 -1.2126e-10)
(-1.04652e-12 -3.6346e-13 4.86311e-13)
(9.65346e-13 1.09952e-12 -1.68401e-12)
(8.28106e-05 0.000270388 -0.00110388)
(0.910283 0.0925123 -0.0723463)
(7.72546e-13 -3.56087e-12 -2.86095e-12)
(-7.34986e-13 -4.12825e-13 -1.18179e-12)
(-7.9033 -1.8098 -2.33752)
(-8.46861 -6.14502 -1.06882)
(0.00308613 0.0475178 -0.297262)
(0.00621363 0.00717811 -0.0417766)
(0.000421261 -0.000885145 -0.00141454)
(-4.87392e-09 5.98074e-09 -1.43171e-08)
(-0.166847 0.305421 -0.280445)
(4.37236e-10 2.03142e-09 -2.13912e-09)
(3.41155e-13 8.23827e-13 -2.94585e-13)
(-0.00782902 -0.00106384 -0.0169926)
(1.97321e-12 3.92483e-12 -6.7194e-12)
(-3.58043e-07 -4.95632e-07 -1.44023e-06)
(9.78582 0.446233 -1.59636)
(17.568 -0.0935331 -2.39603)
(4.02284e-13 6.04004e-13 -2.1678e-14)
(0.0081984 0.00114733 -0.0519937)
(8.22829 0.22015 -1.11265)
(0.0967357 -0.375175 0.437178)
(0.89019 0.675503 0.896785)
(0.0784175 0.0384448 -0.107062)
(4.77001e-13 1.06691e-12 -7.2607e-14)
(-0.0310123 0.0463818 -0.0597846)
(0.206234 0.0650704 -0.127345)
(0.251469 0.310172 -0.0652359)
(-0.0502217 0.178953 -0.18187)
(4.66308 -1.12843 -0.679016)
(1.6938e-07 -1.37583e-07 -7.01677e-07)
(13.9292 -2.96025 0.616609)
(-4.49796e-05 0.00017152 -0.000441395)
(2.58e-07 -5.28955e-08 -3.74066e-07)
(8.78837 -3.08367 1.45052)
(15.4911 -0.306555 -1.9315)
(-0.946375 0.258757 1.6409)
(1.52504 1.32831 1.10376)
(-8.49142e-13 3.01968e-13 2.13461e-13)
(0.0135026 -0.0169008 -0.0628968)
(6.67574e-16 7.2064e-13 6.67405e-13)
(1.1781e-07 1.40949e-07 -8.60984e-07)
(10.7615 -0.936782 -1.03511)
(-0.229523 1.19961 1.67378)
(16.4543 0.88577 -3.66892)
(13.3644 -3.28216 -2.39311)
(-0.440449 -0.329491 0.205973)
(0.880811 0.250507 0.434754)
(17.7912 -1.01265 -3.53346)
(-9.02124e-05 0.000281865 -0.000629213)
(-7.21242 4.31347 -0.272363)
(0.0269076 0.11741 -0.0422243)
(-0.0454449 -0.156431 -0.110611)
(-0.0145716 -0.00838048 0.111634)
(-0.297832 1.642 3.56961)
(-7.86509e-13 -1.3674e-13 -4.77622e-13)
(0.0916578 -0.0713256 0.095985)
(8.24065e-05 0.000114639 -0.000164937)
(-0.050124 0.0609902 -0.276412)
(0.145181 -0.0345122 -0.265537)
(6.86111e-11 -9.98646e-11 -2.12521e-10)
(-0.0847872 0.0762505 -0.0861716)
(3.56726e-13 -5.32064e-13 1.444e-12)
(-7.46276e-13 1.27084e-12 7.11508e-13)
(-0.121707 -0.277502 -0.0507237)
(-4.03389e-13 1.02567e-12 -9.84884e-13)
(0.125614 -0.185702 -0.11968)
(-6.16537e-13 -1.84691e-12 1.00613e-12)
(0.14385 0.123978 -0.303216)
(-0.000351111 0.00610603 -0.00736186)
(-0.00743261 0.0810745 -0.0945283)
(-0.00607543 -0.0936135 -0.186677)
(-0.0568973 -0.0228696 0.222702)
(2.24217e-06 4.99327e-06 -6.84686e-06)
(-0.092639 -0.256862 0.309013)
(-0.0204286 -0.0993683 0.277432)
(-0.139931 0.040451 -0.257247)
(0.00332718 -0.0597229 -0.22775)
(-5.86037e-13 -1.03952e-12 -5.60421e-13)
(0.337402 -0.181804 -0.700033)
(-0.135597 -0.232617 -0.249688)
(-0.144935 -0.0337681 -0.332277)
(0.0354757 -0.0485905 -0.140146)
(-0.124399 -0.0375426 0.255633)
(0.103455 0.26571 0.246342)
(-7.10971e-13 5.79978e-13 -1.05575e-13)
(0.00325381 0.0134949 -0.265126)
(-1.39293e-07 -2.61982e-07 -2.42664e-06)
(-3.77362e-13 -3.01194e-13 5.98472e-13)
(2.09426e-08 1.01012e-09 -3.65029e-08)
(-0.00258069 0.0267785 0.0462125)
(-0.0821916 -0.0226706 -0.145427)
(-3.93067e-09 -1.50714e-08 -1.53034e-08)
(-0.0865785 -0.10226 0.193929)
(0.0270115 0.145944 -0.0585417)
(0.13965 0.0936967 -0.301051)
(1.73076 11.4477 -4.09301)
(-1.31431e-12 1.21121e-12 1.04613e-13)
(0.00203247 0.00790906 -0.213404)
(0.0371413 -0.101666 -0.320028)
(4.08892e-13 -9.57508e-13 -3.27286e-13)
(-1.89425e-12 4.48665e-13 -9.4865e-13)
(1.48417 -0.0932301 0.65313)
(-0.102613 -0.0948579 0.152633)
(-0.0191933 0.00546578 0.0970114)
(0.0399995 -0.303621 -0.332828)
(-2.02042e-12 -9.99368e-14 -1.49463e-13)
(0.000766448 -0.00161751 -0.0220367)
(-0.116163 0.0305875 -0.14582)
(0.00322754 0.0361083 -0.260481)
(0.109897 -0.11904 -0.30326)
(-0.0398531 0.0989507 0.1005)
(-0.0623229 -0.0184288 -0.158027)
(-6.056e-06 -2.37818e-06 -8.5745e-06)
(2.4892e-13 -1.04973e-12 1.6836e-12)
(3.06421 5.13075 0.317716)
(1.49971 8.08109 2.30721)
(0.193496 -0.068447 -0.26728)
(-0.0597215 -0.0472908 -0.511568)
(-1.89609e-14 -4.3647e-13 -1.21127e-12)
(0.0294982 0.0264349 -0.0819053)
(1.23007e-12 -3.69988e-13 6.2349e-14)
(-0.0730982 0.118875 -0.329641)
(-0.148525 0.0024839 -0.185188)
(-0.0314976 -0.0775584 -0.245425)
(0.0523828 0.24815 -0.323313)
(13.5563 5.77218 4.20708)
(4.79609e-10 9.25812e-09 -2.26323e-08)
(0.186594 -0.516789 -0.475351)
(-1.53288e-13 7.90686e-13 -2.82837e-12)
(0.0258007 -0.0565687 -0.142283)
(-0.0606695 -0.180723 -0.154123)
(-0.0691944 -0.0751461 0.498356)
(8.77751e-10 -3.7535e-09 -1.1514e-08)
(-0.0411183 -0.00796064 -0.181063)
(-0.0552654 0.0362461 -0.230852)
(9.57944e-05 1.46691e-05 -0.000113039)
(0.112658 -0.210247 -0.0231457)
(0.00247553 -0.00482871 -0.0294975)
(-0.0149595 -0.0277495 -0.292335)
(-0.0805279 0.00816382 -0.239827)
(-1.86076e-11 2.67531e-10 -5.05138e-10)
(-0.00634016 -0.00858794 -0.0247456)
(0.0199272 0.038698 -0.267202)
(-0.000165659 -8.51623e-05 -0.000773406)
(-0.0698481 -0.1042 -0.251546)
(0.0223346 -0.0253891 -0.187331)
(-6.93455e-05 4.4893e-07 -0.000391431)
(10.7992 -4.89913 -0.368079)
(0.019791 -0.0434939 0.0604825)
(0.0603857 -0.0274433 -0.356676)
(1.83561 13.4963 -5.58247)
(-7.91264e-13 2.14661e-13 -3.74114e-12)
(0.0232034 -0.00416763 -0.0833229)
(0.0490245 -0.342354 0.0667437)
(0.000170197 0.000388572 -0.000599607)
(0.0167532 0.0473124 -0.155181)
(7.74008e-10 3.46176e-09 -2.31501e-08)
(-0.00852402 -0.006237 -0.270335)
(-0.119234 -0.00509904 -0.297226)
(0.140322 0.00916044 -0.33777)
(0.00936856 -0.0105867 -0.0502725)
(-8.63522e-07 -9.3693e-07 -2.23273e-06)
(0.0524581 0.0221317 -0.236648)
(0.0391157 -0.0823857 -0.128434)
(0.11237 0.294229 -0.204809)
(-0.0493487 0.0285221 -0.253016)
(-0.379584 0.13657 0.0574148)
(1.60663 0.00639968 -1.10698)
(0.0275961 0.221697 -0.345472)
(0.119091 0.0356188 -0.145896)
(0.0447511 0.0403183 -0.302636)
(-2.67487 0.453169 -1.27975)
(0.0577334 -0.060788 -0.224523)
(0.032235 0.0912405 -0.333541)
(9.97026e-09 4.93614e-09 -2.54002e-08)
(0.0084699 -0.00067191 -0.0166288)
(0.200586 0.0430835 0.259816)
(0.00139062 -0.0351196 -0.0651596)
(0.026465 0.06599 -0.0230524)
(0.135592 0.00638193 -0.50645)
(6.38133e-13 9.89807e-14 -9.14007e-13)
(8.47083e-06 3.00321e-05 -8.34367e-05)
(0.0232516 -0.11836 -0.077464)
(-8.7629e-13 -3.09074e-13 -7.94749e-13)
(2.04277e-06 6.46795e-07 -1.85918e-05)
(-0.132533 0.299135 0.296369)
(-0.0379501 -0.0127153 -0.149826)
(-1.11555e-12 -1.47325e-12 -1.8153e-12)
(-5.96787 15.308 11.0674)
(-0.13818 -0.0479208 -0.558894)
(9.97179 0.923693 -0.447045)
(0.0162216 -0.0275398 -0.0392451)
(-0.050441 0.0719245 -0.194217)
(-0.395978 -0.208968 0.302456)
(-0.116642 0.223301 0.224419)
(-0.117882 0.0625456 -0.111751)
(0.0528593 -0.0109457 -0.143945)
(8.64758e-13 -2.10752e-13 -1.47679e-12)
(-1.10646e-12 -4.48346e-13 1.80061e-12)
(0.0591466 -0.0913124 -0.140812)
(0.430474 -11.3995 1.26238)
(-2.94354e-13 -9.3453e-14 -1.40442e-13)
(-0.187724 -0.12813 -0.323071)
(-1.16314e-12 -1.13456e-12 -2.37234e-13)