/*--------------------------------*- C++ -*----------------------------------*\
| =========                 |                                                 |
| \\      /  F ield         | OpenFOAM: The Open Source CFD Toolbox           |
|  \\    /   O peration     | Version:  2312                                  |
|   \\  /    A nd           | Website:  www.openfoam.com                      |
|    \\/     M anipulation  |                                                 |
\*---------------------------------------------------------------------------*/
FoamFile
{
    version     2.0;
    format      ascii;
    arch        "LSB;label=32;scalar=64";
    class       volScalarField;
    location    "0.5";
    object      k;
}
// * * * * * * * * * * * * * * * * * * * * * * * * * * * * * * * * * * * * * //

dimensions      [0 2 -2 0 0 0 0];

internalField   nonuniform List<scalar> 
32842
(
0.0131469
0.013142
0.013156
0.0131524
0.0255944
0.0131486
2831.12
613.676
0.013155
0.0131479
64.1981
114.092
0.013154
0.013155
0.0131271
0.0131553
0.0131489
0.0131453
0.0131705
0.0252042
0.0269759
0.0378976
0.0245916
0.0131555
0.0261798
0.0131527
0.0131489
0.0207402
1.33814
0.0131607
72.8953
0.890422
267.674
0.0131537
386.818
817.72
0.028946
0.0132403
0.0131787
0.0131448
0.0131577
0.0268683
0.0131548
0.013155
0.823737
0.0131573
78.2388
0.0131594
0.0264083
1.20785
241.859
0.0131549
0.90712
8.79119
0.0131548
0.142715
0.0131505
27.0051
0.0131551
0.013155
267.007
0.897665
0.906834
0.0270782
0.0131551
132.55
0.013155
0.937686
0.897154
0.0131984
0.0204373
18.3452
0.898603
0.013155
0.0131544
0.0131705
2.38152
0.0131543
0.897702
50.1184
0.0254435
0.013154
0.0131542
0.910529
0.935118
0.0131547
0.0131546
0.0845108
0.54565
0.0131456
0.02833
0.0271737
74.7483
0.0131478
0.0131494
0.0131546
0.903221
0.0131367
0.916342
0.013155
0.013155
0.0385852
0.0132924
14.7768
0.90359
0.895181
80.0971
0.0109722
0.875502
0.0131513
0.0131468
0.0131493
82.4443
0.0131487
0.0132194
0.0265916
0.910691
17.3485
0.0132013
0.0131559
0.0131461
0.0131485
0.73227
0.0131514
0.0120638
0.902957
0.867781
0.0131503
78.2362
0.0131522
0.013154
0.015246
0.0380624
0.864084
0.0395414
0.0131464
0.392008
3.03101
0.013153
0.0131498
0.903295
0.0131497
0.907177
3.86126
0.013153
0.0131508
503.426
0.0131512
0.013155
0.0131463
0.013833
0.774312
0.0263276
64.7907
0.0131405
0.0131547
0.0131537
0.0131536
0.0131492
0.0131488
0.013148
0.013154
0.0244555
0.0131543
0.0131475
0.0131587
0.013154
0.0131526
0.0132538
42.3347
5.93922
0.0361531
24.7357
0.013155
0.0274239
22.3481
0.013156
0.0132271
0.0131549
0.0131529
0.0187291
0.0131523
0.0131509
0.0131474
0.911382
0.01315
0.89683
0.0131495
0.0131499
0.0131545
0.0131542
0.406853
0.894242
0.0131544
0.896644
0.0131509
0.013159
0.0131472
0.895932
0.0131462
0.0131599
0.0132921
0.608579
86.7103
60.4945
0.0640909
0.0131484
0.0271808
0.884639
0.013143
0.0131513
0.0134416
33.641
29.4387
0.0131473
0.013155
0.0131478
0.0131753
0.01315
0.0131524
0.366424
0.0131504
0.0131445
0.0131486
0.0345775
0.880941
0.0131553
0.90279
0.0131506
67.7501
0.0131454
0.0131493
0.0131085
0.013149
73.2422
0.0282719
0.0284326
0.698439
0.0131429
0.906944
0.822389
0.0132104
0.0131472
100.324
0.0131552
0.0131532
0.903488
0.0131396
0.013149
0.0132347
0.013155
0.013149
0.0131444
0.909442
0.0131766
0.0131491
0.0131509
23.8222
0.0131481
0.0131572
0.0131484
0.0131549
0.013155
0.0131385
0.889704
0.0131479
0.013145
0.0131576
0.0132722
0.0131553
0.0131463
0.913719
0.0131495
0.881271
0.0131485
12.3479
0.0131541
0.0346852
0.0131498
0.0131473
0.0131483
87.5622
104.468
0.0131549
0.0131469
0.0907212
61.2486
0.013155
0.0279936
0.0131545
1215.56
0.0131553
0.894607
62.7518
0.898787
0.012883
0.892749
0.0131472
0.0131572
0.0242721
148.081
0.0132249
0.0131464
0.0131996
0.0131532
0.013155
0.013155
0.013155
0.0131618
0.893207
0.0132174
0.013155
0.910083
0.0131481
0.013155
0.0131429
0.0131496
114.773
0.0131524
0.0131552
0.0131533
0.629195
0.0131413
0.0174333
0.0131554
0.0131414
0.0131548
0.0131553
0.013148
0.013155
0.0131556
0.917601
0.0131545
0.013155
0.0131539
0.0131513
0.926787
0.900148
0.013155
0.0131506
0.0131558
0.0131487
0.0918571
0.0131543
0.901238
0.013155
0.0131525
0.887628
0.905213
0.901309
0.01339
56.5149
0.0131509
0.89973
0.013149
0.0131239
0.0352829
0.0131534
0.0131475
0.0131376
0.013155
0.013155
0.013156
1.8513
0.0131462
0.0131469
0.013155
0.0131548
0.623062
0.0237829
0.0131543
1451.49
0.0131527
0.0364391
0.0131547
0.883543
0.0335231
0.013155
0.0759508
0.0246582
0.0131503
0.89506
0.911604
0.0131566
0.0131439
0.0131554
0.0131538
0.0131463
0.0131472
0.013151
0.0131438
0.0131524
0.0131494
0.0131504
0.013147
0.013155
0.0131485
0.013153
0.013156
0.0131449
18.6459
0.013155
0.0131532
0.013197
54.1534
0.0131507
0.0131548
0.036485
0.0131494
0.0293965
0.856888
0.013152
0.013155
0.0131449
0.0131523
0.013149
0.0131494
0.0131521
0.0131546
670.455
0.0131529
0.893646
0.0131527
0.0328163
961.586
0.0131525
0.013157
0.0131545
0.0120075
0.0131552
0.0132183
0.013155
0.0131515
0.90351
0.0253947
0.900617
0.0131482
223.893
67.761
0.90922
0.0300174
7.60459
0.0311512
0.910995
0.0132312
0.0131506
0.0187848
0.0131553
0.0234666
7.69949
0.0131555
0.0131552
0.0132136
95.119
0.0227638
0.0131562
0.0131438
0.0260221
0.0131472
0.0132782
0.013145
0.0278172
0.013154
0.013155
0.013155
0.0131356
0.0131518
0.908704
0.0131547
0.0132249
0.013155
0.0280013
0.0257668
0.013155
0.0131545
0.910001
0.904909
0.0131545
0.0131553
0.013155
0.013155
0.0254491
0.0131511
2.03501
0.909598
0.0131506
0.0131553
0.91276
0.0131402
0.013155
0.0304635
0.0132231
0.0191
0.0138672
0.886991
0.0272268
0.887087
0.904704
0.0431457
0.0131602
0.0337514
41.5401
0.0131407
0.904863
0.0324791
0.916053
0.0227582
0.0131451
36.1856
0.0308412
0.0131514
0.902363
0.0131596
0.873078
0.0131527
0.0131553
0.0343688
0.0365173
50.5693
606.5
23.527
25.7767
32.1397
21.6249
77.5014
0.914874
0.0131457
0.0131486
0.0131525
0.913506
15.6221
0.921639
2.02278
0.0131487
0.0131502
0.0230338
3.52837
0.0131548
182.884
57.9344
0.0134792
65.4683
0.0090059
16.2819
0.0132227
0.013155
0.0131472
0.909379
48.1115
0.013155
0.0282635
0.0131859
0.328733
0.896359
0.0131518
0.0131495
0.0131491
0.0131484
1.13742
1.04096
0.013155
0.013155
0.013143
0.881829
4.16508
0.919099
0.0131463
0.0131466
0.013155
63.2594
0.910672
0.901656
61.6281
0.89432
0.0131511
30.8762
0.89598
0.0131495
95.0678
0.013155
0.0255102
0.013155
0.0436061
0.0271555
0.0246825
0.013155
0.0131529
0.0131565
0.0131535
0.915453
0.0304485
0.0131552
0.0131552
61.7822
0.0131495
0.0500838
57.4558
0.927533
0.0131411
0.0131473
57.6551
52.7132
649.58
0.0131568
95.241
0.916789
0.773432
0.0132851
0.968316
0.0131552
0.0131443
0.0131554
0.013155
0.013155
1.31142
0.0261315
0.0131525
0.013155
0.0131512
0.013155
0.0131111
0.0131414
0.0131478
0.209453
0.913971
0.0131502
0.013155
0.177698
0.781129
5.70046
0.0131574
0.63266
0.0131484
0.013155
0.0132444
71.4788
0.908506
0.0131518
0.0304176
0.0131532
31.142
0.0131549
0.013155
0.0131552
0.0132126
0.426023
0.013155
0.013155
67.5215
12.9666
0.0130432
0.0131865
0.0131456
0.906146
0.928756
0.0131546
0.89697
0.0316723
0.013155
0.0131473
80.8541
119.248
0.013155
0.91196
79.0117
0.0131521
0.50386
0.0131517
0.013155
0.0334857
0.031929
0.0137805
0.0131538
63.2308
0.0131519
55.9146
0.0131459
0.0131529
68.4207
99.3006
5.6158
1.1804
0.013155
0.0131818
0.0237418
0.0248145
74.531
36.8199
113.497
113.417
0.0131419
0.0132665
126.709
0.0131449
5.55405
0.0131548
0.013226
0.930001
48.3292
0.0131461
0.0131546
0.0131438
0.0131443
0.0131647
0.0131549
0.0131532
0.013155
0.013155
0.91241
0.013155
0.0132214
0.013155
0.920466
0.0131463
0.0131513
0.0131502
0.863932
0.0131497
0.0131587
0.0131873
0.0131338
0.0131538
0.0131552
0.0142565
0.0131809
0.013158
0.0131548
0.013157
0.00318902
0.0131384
0.0312938
0.0185556
0.0279722
0.0131536
0.0346519
0.0393821
0.881019
0.013155
0.0131522
0.0300076
2.1792
0.013155
0.865985
0.0351998
0.013155
0.013155
0.143745
0.0131774
0.0132013
0.892192
0.013155
0.0131508
0.0131543
0.029838
0.875839
0.0131568
0.0317253
0.0131496
0.023727
78.7888
68.5273
0.0278104
0.0131512
0.911094
0.0131487
0.013155
0.0131532
0.0131506
0.0132594
0.0131034
0.370972
0.0131541
0.0132471
0.906809
0.0323743
0.0131501
0.0131723
0.0131546
0.89758
0.0392949
0.901407
0.0131511
0.903562
0.886342
0.027392
0.0131553
0.0237807
0.0131534
0.0313331
0.0131562
0.0131493
0.0281294
33.0319
0.878869
0.0131549
131.001
0.0131452
0.87604
0.0131536
0.013145
0.0131512
0.0131541
0.0131539
0.013247
0.0131513
0.0131444
0.0131497
0.0131536
0.0131561
0.0131512
0.913436
0.0133424
0.339581
0.0131498
0.0131524
0.0291916
9.95695
0.0131514
0.0131512
0.0266613
0.0131449
0.0131883
0.0132129
0.038748
0.934283
0.013155
0.0131454
0.0132375
0.0131469
0.0131469
0.0131565
0.0131494
0.013155
1466.29
0.0131595
34.8914
0.0131476
0.0131547
0.0131343
0.013127
0.0272802
0.0131484
0.013155
0.013155
0.0131456
0.71924
0.013155
0.0132055
0.907772
0.0131415
0.899967
0.0131445
145.304
0.0131547
0.0131546
0.921446
62.0453
0.013109
0.0131473
58.2345
0.0314001
0.0131585
0.0131555
0.013155
0.0131565
0.0131558
0.890704
8.3934
0.882197
0.013155
0.898471
0.0131548
0.0131448
0.0131583
0.0236607
0.018341
0.0131445
0.0131496
0.0131451
0.0131497
0.0131732
0.013155
0.01315
0.0131396
0.0131189
0.122814
0.031949
0.013155
0.475715
1.01602
0.0131013
0.321501
0.133649
0.013155
0.013145
0.0131406
0.863727
0.013155
0.013155
0.884977
0.0317305
0.0131453
0.013155
0.013155
0.0131563
0.0170649
0.694839
0.0131503
0.0131216
0.901379
0.013204
0.0131825
26.3717
0.0131463
0.0131478
0.0131554
0.0131538
0.895864
0.0132197
0.0131327
0.0131449
0.0131837
0.0306832
0.013155
0.901288
0.0256279
108.765
0.013155
0.013155
0.0131551
0.0131557
0.0131549
0.013155
0.125348
57.2254
0.0225354
0.12314
0.013155
0.0239044
0.0131527
0.0131544
0.013185
0.013155
0.0131619
0.0131472
0.013155
0.0131584
0.0131481
0.0131417
27.2475
0.0131519
0.925027
0.0131541
0.912316
0.915741
0.013155
0.0244166
0.902231
82.0874
104.671
0.335138
0.0131563
0.0131554
0.013155
0.0131554
0.595817
0.0131553
0.615807
0.593248
0.316553
0.509803
0.0185513
51.9109
0.013155
9.99399
695.834
0.0131455
66.7241
0.0600048
0.0131524
0.0131549
0.0131516
22.2192
0.0131415
0.894484
0.0279409
289.339
0.873595
0.903595
0.0364036
0.013155
0.0131482
0.0131476
0.0131524
0.0131567
0.0131463
0.0131492
0.0131502
2.58583
0.0364161
0.013149
32.8447
0.013153
0.0131539
0.0131525
0.0131522
51.6185
4.61071
0.0131578
0.0131488
0.0131575
0.893108
0.370649
0.0131533
4.83367
0.875579
2.81438
0.0131529
0.0131452
46.9724
0.912618
0.0131468
0.0131903
0.0132015
0.0131413
38.4795
0.0131473
0.862744
0.0132761
0.0131547
0.0131591
0.0131542
0.0148297
9.33016
0.0131476
0.013148
505.408
0.465286
0.8992
0.0131523
24.0214
48.5036
0.013161
0.0131552
0.0131582
0.917497
41.1515
0.0131514
0.0264203
7.47935
0.013155
0.0169785
6.69099
0.0131502
0.0131488
0.0132526
0.0131505
117.118
0.013153
0.0131387
0.258954
39.9316
0.019372
0.01956
14.9787
0.0131455
79.9954
0.86741
0.0131532
0.904943
0.904987
21.9354
5.97228
17.2858
15.0686
0.0131548
304.043
0.898267
0.0130897
0.0131546
0.0131437
0.0131618
0.0131508
0.0131501
0.0131538
0.0131459
55.4362
0.013148
0.0131452
0.122138
0.013152
0.0131429
67.8588
0.290313
0.027962
0.0154127
0.0131543
7.10693
120.587
0.883723
0.0131501
0.013153
0.0131543
1.23033
69.5139
0.0361331
0.0130136
67.9177
0.0131486
8.23738
0.0102106
0.0131501
1.12853
0.0312627
0.0131499
0.331549
0.0131533
0.01315
2.35342
83.5371
37.9995
0.0131464
0.0131454
0.013155
0.0131464
0.0132441
0.0390527
14.7033
0.013155
0.0131513
39.4981
0.0131513
0.0131572
5.60389
0.0131482
22.3767
28.484
0.0131504
0.0131528
28.887
11.3428
24.4871
13.8855
0.0131548
98.4749
15.8221
0.0411058
69.8741
0.00160838
0.907783
0.0131486
0.0131558
0.0117298
4.23045
0.0382509
0.0131445
2.44541
0.911031
22.0965
1.00774
0.013155
0.50524
3.22175
2.94912
0.013155
0.0131564
27.1794
0.0131459
0.0132441
0.525328
0.0133556
103.029
10.793
0.0452213
0.0188948
0.0131535
0.0131486
17.4767
0.980345
0.0130425
0.0131645
0.013155
0.722481
0.0132346
0.581573
389.286
0.0131892
1.51323
35.9144
2.39566
22.2092
35.3591
154.134
0.0132211
0.910399
28.6678
3.94914
0.0225939
0.0131476
24.4553
0.0131462
0.0112103
0.0367046
0.857474
0.895757
4.90061
0.0330194
0.883498
498.504
0.0131512
35.5909
0.0356672
0.888321
31.7022
0.0131486
0.974323
0.761185
34.9102
0.0378105
0.0131551
0.913799
0.013155
0.027702
172.027
0.0247591
0.0131491
0.900712
1.37499
0.0131588
90.9244
0.013155
0.0131606
0.0131543
0.0131512
23.6482
0.0239564
0.0131548
0.895644
0.915716
0.0131467
0.0131675
49.453
0.0131586
0.0131545
0.0131542
25.4385
14.0896
0.0131489
71.0166
0.013155
37.0492
0.57683
0.0134829
0.896247
8.92667
0.369235
0.0564323
0.0131187
1.438
45.3527
17.0804
68.725
133.559
0.0276786
18.0318
0.013142
87.5288
0.0131421
0.894408
0.0131761
10.8426
0.0131565
0.0265929
0.0180384
59.0774
6.22982
0.0261779
0.013152
68.2394
0.891512
0.0131562
0.013155
35.817
0.591049
0.0130996
0.921314
0.0131551
8.36067
6.10435
0.923241
0.0131418
0.013146
11.1409
52.949
0.0299046
0.0131505
0.0308204
0.0131538
0.0131418
7.64389
0.013155
0.87727
0.906742
0.0131459
5.45656
0.0131499
72.4736
52.8004
0.013155
0.0409687
12.1507
0.0131551
0.013155
0.0131416
0.878318
0.0131497
0.0131962
0.0131932
0.033786
0.0132029
0.0133445
0.0131526
0.0131453
0.0131491
0.0131463
0.0131496
0.0131397
0.0131402
0.0131495
0.0131519
20.9277
0.0131758
0.0131525
64.9889
0.052073
0.0131562
0.0131545
0.0107997
0.013155
0.03217
11.077
0.0131596
0.0131414
0.0132029
0.0125149
1.10933
17.5919
0.0405847
0.875551
49.6489
0.0131532
0.0131602
92.0223
60.4527
0.030513
0.893255
0.0131411
0.0131641
57.1512
0.031894
67.9431
0.031035
0.0352624
0.0223131
0.0131585
59.633
0.0131493
0.0131555
0.0352909
55.7197
112.387
0.872361
47.4107
0.0247552
0.0237841
0.0771217
0.0130709
65.0981
23.863
0.0243028
25.7105
0.0131546
80.9313
0.0131577
0.0698857
0.013259
7.42601
0.0131535
44.4717
0.0131996
0.01315
0.0326872
10.8889
10.061
0.167876
0.0131502
0.0131563
26.3152
0.0131524
0.013155
47.2855
0.013155
14.8059
0.013115
0.013172
0.0134093
0.0131549
0.013149
0.013155
15.2929
0.0131525
3.17789
0.806934
0.0131492
0.0131512
0.0131419
0.0131563
0.0131681
0.0131548
39.2111
0.0131579
0.0131588
0.013155
0.0329897
0.882261
0.0131616
0.0132518
0.0131469
66.5821
0.0130515
0.0131534
0.0131539
0.013149
0.0131537
0.904211
0.0131482
0.013151
0.0131475
76.4443
0.0130893
0.0131428
0.0131525
0.903143
0.0131967
0.0132482
0.348552
0.0131621
0.0132873
0.013066
9.06683
0.0131502
0.0131509
0.0120762
4.62307
23.5771
0.0131385
70.3663
64.7136
56.986
0.0131541
69.8884
0.42896
0.0278637
0.0131431
68.5768
47.9592
0.0131606
0.0131541
0.0131432
0.0131516
55.7162
41.5864
0.0131548
0.0131528
0.0127663
0.0131463
0.0132023
61.1565
0.0131487
74.1857
90.2425
0.0131551
0.0138861
0.646875
0.0101231
0.0204899
0.0131714
0.0131408
0.893223
0.0131511
59.5964
0.0131597
0.0121996
0.0131496
0.895736
0.032759
0.0131546
0.0130864
0.0131476
0.0131506
0.0451355
0.0131797
34.2839
0.0131498
0.238967
0.401301
0.0398095
0.013157
0.608344
0.932302
0.0131489
8.52522
1.26617
0.0392276
0.0131453
0.01315
0.903765
13.7033
0.839384
0.339581
0.0131479
0.013155
0.048686
0.0131529
7.63191
0.0131518
0.0131458
0.033589
0.168773
0.0131495
0.013155
40.4416
0.013155
0.0131557
0.0131537
0.013155
10.8575
0.865504
27.696
0.013155
0.0131533
0.0131578
79.2282
0.00617691
57.8261
60.2322
0.0331474
0.0131541
0.0131548
0.013149
0.013155
65.9783
65.9679
0.013155
0.0131518
0.0131533
0.0131487
0.898418
0.013155
0.906732
0.013155
0.916615
0.0302692
9.02392
0.0131551
0.0131515
0.013155
0.0132897
0.0132419
0.0133317
0.0131549
0.890766
0.0133197
3.55994
5.02855
3.68565
0.0131553
0.0131498
0.0131554
0.0131478
0.0131053
58.1482
0.0131504
0.0131508
0.013149
0.924413
5.17747
59.4648
99.4886
55.9173
0.892308
0.0409144
752.054
0.0129067
0.897286
0.0130661
0.0131202
0.0375738
0.713841
32.2849
0.0661279
0.0131327
0.892487
69.6079
0.0131461
0.0131459
0.0132436
0.0131964
0.0131537
0.0131452
0.0279425
31.8511
0.0131898
25.5636
46.0019
0.0131485
0.013155
0.013155
0.0131583
0.0131466
0.0131459
0.0131847
0.0361866
9.94469
0.0133219
2.58707
14.9868
0.0132201
4.4219
0.912119
0.0131474
0.026254
1.84011
0.0108288
0.0283578
0.0278035
15.3443
0.901375
0.0131721
61.8398
0.0131451
0.0131499
0.781078
0.0131497
0.0131448
0.0131433
0.0131551
22.2932
0.0132018
0.0131404
0.0131459
0.013155
0.01315
0.0131389
0.0131516
0.0131652
0.911306
0.0131462
1.71494
0.0131587
0.0140623
0.0133131
0.0131504
41.2098
0.0131628
0.0131418
0.87099
0.045959
0.0131604
0.0131098
0.00328758
0.113649
13.6827
0.0149298
0.013155
81.1141
0.0131513
0.0131526
0.0131525
0.581685
0.013147
0.0131523
0.0131576
12.1859
0.0255926
0.013155
0.0265323
0.0131478
0.902318
0.033396
0.0131518
0.499529
0.0131552
0.0131514
0.0131497
0.0131483
0.0131493
0.013154
0.0276018
0.0131471
0.0131531
0.0140037
0.892272
23.4374
0.0131899
0.0134027
0.0367326
0.0134213
1.95006
0.885996
0.609434
0.0129213
0.0132106
0.0272383
0.0131595
0.0103544
0.0131667
13.5
0.864222
0.0305025
0.903154
0.895803
0.0131421
0.0131544
0.907954
0.0131458
0.0131512
0.26508
0.0295406
0.0131426
0.0131515
0.00716164
0.0131555
0.013145
0.0131437
0.013155
0.0131522
0.931596
0.0131535
0.0131522
0.0131573
0.0131568
0.013155
0.251666
0.605246
0.0352177
0.0131551
0.0251133
0.0519925
0.0131518
0.0131478
0.0131495
26.1922
0.903491
6.56729
0.0131515
65.0969
0.013152
0.0131556
0.944396
0.894858
0.0131495
0.0131705
0.013155
0.0131437
0.0131525
0.0131567
0.013149
0.0131478
2.14294
3.236
0.906181
0.0131517
0.0131517
89.4802
0.0131525
35.6957
0.0131489
0.0248455
0.0131424
0.0131532
0.0131495
108.646
0.663731
0.0130332
0.0120724
0.0131416
0.013155
0.00464842
0.013159
0.91837
0.0277202
31.3161
0.887404
0.013155
41.327
0.013155
0.0131504
0.013155
0.013155
0.0131494
0.0131485
0.900952
0.0131567
0.0523086
0.013155
0.0123842
0.0131487
848.809
0.013145
0.0131615
78.8308
0.902855
0.0131468
0.0131512
0.0131546
0.0131536
0.562055
0.0131575
0.894194
0.0131436
0.0131528
0.116119
25.5077
0.0131443
0.0134058
0.0131525
0.0121945
0.013155
0.013155
110.707
0.013145
0.013155
0.0272011
0.013155
0.0131492
0.0131513
0.0131553
0.0131668
0.0545238
0.0131522
0.0132837
4.31355
30.9692
386.46
0.0131502
0.0131483
32.338
0.0131491
0.013405
63.11
0.013146
18.653
26.5883
48.8907
0.892803
0.0131397
0.0131509
0.0131539
0.0131543
0.0131562
0.883539
0.0131569
0.890467
0.0131586
61.6374
0.133564
0.0131541
54.7071
0.0131501
0.0131519
0.0161181
57.921
0.9084
0.013155
6.06988
0.0131439
0.013155
0.013144
0.0131539
0.0131449
0.013155
72.5436
0.884708
0.0138575
0.0131553
0.0133181
0.0131481
85.1951
0.013155
26.7647
0.0131491
0.013155
0.0130239
0.0300555
0.0131571
47.1755
82.2038
0.0131456
0.0131471
0.0131484
14.5631
0.0131481
0.0131511
0.0131507
16.8051
0.0131668
0.013155
0.0132108
0.876428
56.1352
32.1895
74.4685
5.50702
87.9544
0.0131501
0.0131418
0.0131721
26.7653
0.0131445
0.0131462
19.783
0.0204486
0.873293
0.0131452
0.0131461
0.909752
0.912698
78.3014
0.0131502
0.013145
35.3496
31.5903
0.0994764
34.2868
0.917672
0.0131468
0.0131544
43.5345
0.0131511
0.0131463
0.0295144
39.1554
0.0247823
93.2508
0.898262
46.8564
0.0131512
1.25063
27.0545
0.0131464
0.0131464
55.8998
0.0132347
0.0131511
0.0131447
0.0131546
0.0134162
0.0929576
0.0132595
476.964
0.0131501
0.013155
0.0131429
0.0129901
0.0220878
0.572233
0.0131535
0.0131656
0.0131546
8.14969
69.2343
0.0131534
0.0131495
0.0122031
0.0131506
6.91681e-05
0.0131515
0.0131561
70.2912
0.0132655
66.8932
0.013151
16.9324
0.0131511
6.66982
7.25884
23.3039
0.0131496
0.0135154
10.902
0.013162
0.0131472
0.0131468
0.0131504
0.0396556
0.279677
11.081
51.0163
17.9777
110.891
0.0288452
93.7453
0.0302923
0.0318027
0.0131576
0.013158
0.0357386
0.0131548
0.0259212
0.0131526
0.0131831
0.0131474
0.030192
0.0131491
0.0134376
0.0292523
0.0131511
0.0131477
0.0131534
0.0131592
0.013145
0.013148
0.882023
0.0131534
0.0131466
23.1403
0.0131518
60.9519
68.6059
0.89303
53.6764
0.892752
75.3199
0.901613
0.013155
0.013155
0.0131533
0.885807
0.0131547
85.1831
0.0131507
0.0131342
0.0131482
0.013151
0.0131611
0.013152
0.0131595
0.0129014
0.0131549
0.902709
0.0131558
0.0131493
71.706
0.0132685
0.0131471
105.768
0.895058
0.0131512
0.0131562
0.0131497
0.926088
34.2643
29.8424
99.6469
38.6499
0.0131563
0.0131461
0.013149
0.0131407
0.0131563
0.0131503
0.028325
0.0131508
0.0131496
0.0131495
0.0131808
0.0131475
0.0131491
0.013147
0.0131707
9.68347
10.31
28.8904
0.315115
0.979968
0.0131554
0.0131521
42.426
0.0123485
0.0131521
37.268
0.0325814
0.0131446
0.0131513
0.0458178
12.594
0.593461
0.0131519
0.013155
0.0314366
35.4037
0.013155
0.0131494
0.013155
0.290428
52.2231
0.0134012
0.0335584
0.0131484
0.0131539
0.0131562
0.0131509
0.0131472
0.0131553
0.0131517
0.0131543
0.0131556
0.0131537
0.0131523
0.0131456
0.0131524
0.189336
0.0131605
0.216832
10.7629
47.1578
13.4453
0.898889
0.91665
2.54114
2.55627
0.013155
0.0131483
0.0136022
0.13835
0.812453
0.884717
0.3476
39.5641
79.7068
8.02794
23.8075
0.0273297
0.016684
0.0133132
61.2655
1.60202
17.9895
0.0131495
0.0131568
0.013151
0.0131434
0.881199
1.49649
0.108461
24.2477
0.0363428
0.0131484
0.013153
0.0131559
9.77528
0.0213892
0.0131336
0.0131532
0.916088
0.00566012
0.0131517
0.0131528
0.0131798
0.0131484
0.0131439
0.0131584
0.882249
0.0130886
0.0131438
0.0131693
46.7715
0.0132038
0.00778772
0.0135963
0.0131429
8.18218
0.0131529
0.0132017
0.0131496
0.170733
11.8712
10.2237
0.0131529
2.5443
0.0131504
0.0131516
17.4756
0.908397
53.7638
77.2331
0.879638
0.013155
15.1235
0.0131579
0.013155
0.013155
0.0132122
0.013155
23.0307
0.0131529
1.31121
7.78711
0.0131525
0.0131517
0.0316742
0.0132431
0.909879
0.0131474
0.0694319
0.0131462
0.0131663
13.7488
0.0131548
0.0131527
87.9883
0.0131525
0.0131522
0.0131454
101.953
16.3882
0.0131538
9.64752
0.0131514
0.0131409
0.0131528
0.0131554
0.0131581
0.0131502
0.0131521
0.013155
0.0131544
0.0132044
0.15944
0.0131617
0.00516427
0.0131353
0.0497155
0.0326547
0.516547
74.1097
0.013155
0.013155
0.0131511
23.5411
84.763
0.013155
0.0131823
142.063
46.5393
0.545194
98.2744
6.66277
0.0131476
0.876778
0.896925
0.0131517
0.0131579
0.0131513
0.00993564
0.913307
0.0126938
70.443
0.0131464
0.0131522
39.1708
762.464
0.0131792
63.2298
108.544
0.0131522
0.0131459
0.032039
0.0131513
109.533
0.0306614
0.0313349
0.0338395
0.0131493
0.0131494
40.9308
0.0800944
0.0132837
0.013153
0.0131493
0.0131542
0.0131484
0.0131449
0.888415
51.3211
1.00228
0.0131488
0.013149
0.01315
0.0131483
0.0132084
0.0131519
0.0132735
0.0134186
2.79707
0.0131511
0.846111
0.905216
0.013141
0.0131443
0.0131436
76.1751
0.0131474
0.0100418
2.56395
0.926031
0.0130051
0.0131488
0.0131445
0.0131559
0.0132082
53.28
0.0133127
0.0131443
11.2823
27.209
0.0131305
32.9309
0.0130002
0.284311
0.0152544
0.0131453
0.923935
0.013151
0.0131567
0.0131328
0.0131927
0.0132038
0.0131716
0.0375455
0.0132373
0.021387
0.0132243
0.264056
0.0132632
0.0131515
0.0122772
0.0132191
0.0354479
0.88351
41.1862
0.0133426
0.0523897
0.0287517
0.0131573
0.0381292
0.887448
14.9393
0.0329088
0.527427
0.013147
0.0395381
5.9469
0.0131497
55.1539
32.6796
3.30447
0.031834
0.0328296
0.851457
0.0131422
0.0132465
0.0162932
78.5508
0.0125508
0.0131526
0.329118
0.0132421
0.0131437
0.0330071
31.9094
151.816
0.0131532
0.808065
0.0131482
0.810119
0.0129703
0.0131563
0.868037
0.0131387
0.0343475
20.9277
0.261282
0.032493
55.7779
0.0132421
0.723387
0.0131394
0.924168
6.40063
0.061973
0.0132656
0.0147879
60.0788
38.6071
13.4119
0.0132451
0.0132354
38.0237
0.0131616
0.0131478
28.2663
18.6274
0.0318742
0.0131531
0.0131478
0.0131446
0.913736
0.0131549
0.013156
0.0131448
0.23396
0.0131904
0.0131549
0.00289144
0.0359767
0.0131539
0.0131499
50.0502
31.2386
0.0131229
0.0131529
0.835949
0.616914
0.0131407
0.774364
0.0369863
0.0341531
16.3508
0.0131474
0.273798
0.027553
0.0131555
0.0132023
8.32707
0.137341
148.76
0.013146
115.785
8.50423
0.0946178
0.857362
0.311202
6.66133
8.22614
50.096
0.863449
25.3127
0.881677
0.0131492
0.0133323
0.911686
0.01316
0.0131432
0.902121
1.4446
0.0131461
0.0131672
0.0131567
0.0131583
0.0310466
0.901668
0.0131559
7.63355
0.0131476
0.013141
4.24915
0.899117
22.028
0.0132196
0.93929
126.454
6.5365
56.7526
0.0131724
0.0131531
0.0131696
0.0131457
0.0274542
0.0329033
0.0131519
0.0131531
27.4702
27.2276
0.0385073
127.032
0.89936
130.491
0.0287911
39.1549
0.0132774
36.6658
0.0282827
0.906296
0.0132271
0.013155
110.69
0.013155
0.0131551
0.0131493
0.013155
0.013155
0.0243531
0.885414
0.143466
0.013155
122.902
108.63
0.0241361
0.0131479
0.0131472
0.0131557
0.0131517
0.300661
0.0131566
0.870844
0.875822
0.0131391
0.0131528
84.3191
124.526
0.930138
0.911877
0.0132615
0.0338811
0.91275
0.0131548
0.013155
0.0131482
124.491
0.0131509
0.0131461
0.0131471
0.0131514
0.0263555
0.0132615
0.0132276
105.536
0.0187446
0.0410426
0.0130991
0.896124
0.910055
67.5799
0.00152791
0.0131577
58.7041
0.0131561
0.0131483
0.0132218
0.931954
0.0131487
0.0271543
0.926015
0.013155
0.0131428
0.900774
0.0131567
0.0131485
123.856
0.922203
0.0132661
0.922972
0.0131504
0.0131498
0.0131473
0.0131548
0.0131464
88.2133
0.0131483
0.891699
0.028308
0.013155
0.013155
45.509
0.0132348
0.852885
0.0285406
0.013155
0.0131455
0.0131553
0.0131526
0.0237783
0.901535
0.0131465
0.0266931
0.893594
0.0131456
0.013155
0.0249357
0.0131891
0.0131552
0.0253919
0.024517
0.0131488
0.0131553
17.0347
0.892768
0.0263435
0.910422
0.910282
0.01365
0.921041
0.0131457
0.013142
0.0131464
0.0131493
0.013155
0.013498
1.50405
0.0131553
0.028143
27.8701
0.0310366
0.0131595
0.0131439
7.95305
2.32633
0.0273999
11.1659
0.013142
7.27597
0.013156
0.0131571
0.0131539
0.0132265
0.882984
0.0131542
0.908475
0.0132112
0.013155
0.013155
0.0131432
0.0263856
0.0237159
0.89249
0.919254
0.013155
0.013155
23.1197
24.8631
0.0131549
0.0131525
11.701
0.923019
0.00429052
0.903462
0.00971628
0.0131555
0.013155
0.013155
0.0131466
0.024464
0.911388
0.923706
0.0131551
0.0131473
0.0254672
0.0133681
0.902551
0.0131563
0.0131493
0.0131507
0.0267335
0.0247169
0.0313002
0.0131477
0.0270798
0.902121
0.0131508
0.0131493
0.0128187
0.898977
0.0133105
0.0131469
0.0131442
0.0131479
0.013155
0.91301
0.0294915
0.0131553
0.013155
0.936237
0.0131518
0.0131527
0.883385
0.884867
0.0275869
0.0131438
0.013155
0.0272907
0.013155
0.0131539
0.0131429
0.0132243
0.0131542
0.013155
0.0131548
0.0131544
13.365
0.013155
0.013153
0.0279651
30.0159
2.01604
114.859
76.7763
0.0131422
0.882647
24.7483
9.84529
0.0251212
44.9709
0.0132058
0.870516
13.8475
0.374818
23.9002
0.032451
35.1222
0.574939
2.35992
21.946
0.0131515
0.0131549
0.179506
0.0131517
46.7827
31.9151
49.6519
4.38401
19.2656
34.1499
135.874
15.5682
87.2509
0.0131633
0.0131439
0.0131575
194.268
18.7166
0.0131549
0.0288604
0.0131534
0.0131554
0.0131598
0.913062
0.0132194
0.026409
0.0131506
0.0131604
0.0130378
0.0131476
2.12395
0.0264225
0.0131437
2.46604
65.4398
0.87624
0.013153
0.890365
102.118
0.921668
0.0274268
0.0131518
0.0131523
0.0310454
0.105672
0.0314571
0.0131435
0.0308167
111.926
0.0133052
0.0131513
0.895354
0.0131516
113.26
0.0250217
0.013155
0.911301
0.0150217
0.0132226
0.0333554
0.0269653
0.906597
124.52
19.9263
0.0132222
0.892422
0.0379148
0.0131764
0.0131461
0.0360427
0.898411
0.0131495
0.0131622
0.0131517
0.85955
0.0318801
0.885165
11.3065
265.526
103.065
0.907791
0.912479
0.0131581
0.0131541
0.0131543
19.9453
0.0131483
0.0302219
2.97158
0.0184218
96.3913
41.8648
57.8935
0.0131497
103.876
95.7682
0.0131514
0.0132318
0.0336672
0.0134544
0.0131444
0.0131585
83.8479
0.0131441
0.0131177
0.0131514
0.0132077
67.6029
0.207484
0.013147
0.0131544
0.896955
0.013155
0.0131513
0.257668
0.905329
0.0315937
0.755404
0.0131524
0.027886
40.1149
0.0132489
0.0131543
0.91361
0.0300975
0.136345
0.0131886
68.9774
0.91612
0.896976
0.013192
14.4787
0.0132938
0.0132532
37.0343
0.0246121
0.0131506
0.0131468
0.013787
0.0131536
0.0024032
0.0131497
0.0734425
0.0131492
0.0131455
0.0132774
0.0139167
0.0131519
0.0131481
0.0131492
0.013144
92.1279
0.0132392
1.52148
0.886717
0.01315
0.524984
1.03271
0.507631
0.354033
0.282508
46.6131
4.01602
58.4976
0.0168176
0.429118
0.0131456
0.130665
0.0131441
0.0131476
19.0895
0.0131536
58.7132
76.5704
0.0125885
0.0131571
0.0131453
0.0131492
6.45656
0.115832
0.0131432
5.40906
0.01345
0.0131468
14.7295
0.0131501
74.4779
75.274
0.0131461
0.0131467
0.0131433
0.00655207
0.0131498
25.1041
0.0829182
37.6691
0.0131496
52.6259
0.0131514
0.540833
83.6643
33.8548
24.9537
0.348811
0.0131291
0.0131439
56.6623
72.7337
0.0131448
0.0132932
40.4694
0.0131543
0.0131542
0.013155
62.6134
0.899279
0.0131484
0.0131504
0.0131513
5.17068
0.441234
0.01315
0.013149
0.0131486
0.0344804
0.0131518
0.0131694
0.0131721
0.369516
76.8238
0.65694
0.0131496
0.284299
13.8054
0.0131526
0.0131596
0.0176274
0.0288421
0.0133064
0.013138
4.4234
5.39631
3.56891
0.0131621
61.3077
0.0258961
0.0131495
67.6208
5.68534
0.730093
2.31912
0.898593
0.0131647
0.0131522
0.0100677
0.0131509
0.0140906
0.0131694
67.8611
0.0131526
0.423495
74.5145
0.0131477
0.0134605
0.0132877
0.0131476
0.0756935
0.0131444
51.101
0.0131497
0.0131493
0.0478018
8.77487
36.1647
0.893248
0.0131489
0.375995
0.0131503
0.0131409
0.364483
0.913943
0.0131494
33.0171
2.62048
0.0131532
12.3198
6.64839
6.4814
2.71436
93.353
0.341975
0.0737241
5.02564
0.0132076
3.53723
0.013155
0.0131512
63.1375
0.79203
21.5497
29.6879
33.3532
3.80381
0.0131509
0.0131708
58.9253
2.99431
39.3808
7.60724
9.77089
17.141
24.855
20.3956
69.924
0.491318
18.4564
39.4285
0.0257529
77.4535
57.6298
0.0123191
0.0315034
0.903832
0.0133239
30.4818
0.0381218
26.2128
126.433
0.0131475
125.775
0.0131484
0.0175065
0.391684
0.0356459
1.5714
7.42939
0.242285
0.896131
0.0131514
0.0131367
0.906587
72.6946
0.0131472
0.606595
0.01294
0.0131383
0.037327
0.0246274
0.0131556
0.013155
0.0131539
0.01319
0.918603
2.15078
0.0131511
0.0131277
0.0131586
30.3848
0.013155
0.007829
0.0132836
0.013155
27.9962
2.73139
0.013136
0.0131477
70.8407
37.8332
0.0157518
14.2714
0.0131565
0.0131511
0.886241
70.8979
0.0134073
0.0131606
0.350386
0.0132182
74.7285
0.013162
0.013152
84.0287
85.6655
0.622975
0.426308
0.0132285
0.0132119
0.172067
0.0287827
0.0307066
0.810536
0.0134922
0.0132087
0.0131794
0.0131394
21.9809
0.0478675
5.24005
0.900967
41.1371
0.0307712
0.00258692
79.0644
2.08704
7.60624
31.5651
84.1047
1.1172