/*--------------------------------*- C++ -*----------------------------------*\
| =========                 |                                                 |
| \\      /  F ield         | OpenFOAM: The Open Source CFD Toolbox           |
|  \\    /   O peration     | Version:  2312                                  |
|   \\  /    A nd           | Website:  www.openfoam.com                      |
|    \\/     M anipulation  |                                                 |
\*---------------------------------------------------------------------------*/
FoamFile
{
    version     2.0;
    format      ascii;
    arch        "LSB;label=32;scalar=64";
    class       volScalarField;
    location    "0.5";
    object      nut;
}
// * * * * * * * * * * * * * * * * * * * * * * * * * * * * * * * * * * * * * //

dimensions      [0 2 -1 0 0 0 0];

internalField   nonuniform List<scalar> 
32842
(
0.000556723
0.000556627
0.000557116
0.00055689
0.00146972
0.000556795
7.60376
3.11091
0.000556952
0.000556772
0.60675
0.869445
0.000556898
0.000556952
0.00055199
0.000556931
0.00055678
0.000556714
0.000558236
0.00143798
0.00158277
0.00288268
0.00138239
0.000556981
0.00155083
0.000556898
0.000556804
0.00107524
0.3293
0.000557056
0.891876
0.45651
16.8833
0.000556888
20.5337
4.84652
0.00176904
0.000562112
0.000558217
0.000556671
0.00055747
0.00157926
0.000556948
0.000556952
0.315307
0.000556972
1.56047
0.000556996
0.00154163
0.16867
5.23755
0.000556951
0.570449
0.530252
0.000556949
0.0136654
0.000556844
0.992146
0.000556958
0.000556952
3.53631
0.546121
0.611178
0.00160298
0.000556919
8.24155
0.000556968
0.681655
0.423228
0.000558443
0.00106388
2.20947
0.481548
0.000556952
0.000556938
0.000558803
0.412314
0.000556935
0.479692
0.688199
0.0014585
0.000556927
0.000556934
0.536183
0.757583
0.000556944
0.000556942
0.00622334
0.109477
0.000556711
0.00175586
0.00162722
5.92484
0.000555666
0.000556817
0.000556887
0.46813
0.000553995
0.69695
0.000556952
0.000556952
0.00283099
0.000565254
0.312977
0.478924
0.437617
1.66067
0.000404107
0.505802
0.000556927
0.000556743
0.0005568
3.92155
0.000556788
0.000558807
0.00155733
0.525735
0.599014
0.000558233
0.000556916
0.000556725
0.000556784
0.108639
0.000556833
0.000498071
0.476075
0.37815
0.000556812
4.90632
0.000556858
0.000556928
0.000738306
0.00253105
0.471809
0.00276253
0.00055672
4.11701
0.110168
0.000556849
0.000556776
0.513731
0.000556795
0.510847
1.2765
0.00055687
0.000556823
13.9951
0.000556834
0.000556952
0.000556722
0.000581175
0.158844
0.00159772
1.5668
0.000556579
0.000556946
0.000556921
0.000556895
0.000556771
0.00055679
0.000556745
0.000556928
0.0013768
0.000556935
0.000556754
0.000557009
0.000556929
0.000556867
0.000562825
1.64167
1.08136
0.00247649
1.96082
0.000556952
0.00162827
0.76563
0.000556941
0.000559037
0.00055695
0.000556887
0.000892155
0.00055686
0.000556832
0.000556769
0.529087
0.000556808
0.486453
0.000556795
0.000556792
0.000556906
0.000556898
0.0802198
0.414626
0.000556937
0.430965
0.000556822
0.000556985
0.000556743
0.465151
0.000556721
0.000557005
0.000565154
0.085567
2.9396
2.93005
0.00515995
0.000556752
0.00160679
0.432817
0.000556634
0.000556827
0.000572348
2.03767
1.76714
0.000556744
0.000556952
0.00055675
0.000558551
0.000556802
0.00055684
0.0810862
0.000556841
0.000556689
0.000556769
0.00231831
0.363746
0.000556969
0.450255
0.000556806
2.60328
0.000556707
0.000556806
0.000554466
0.000556807
2.67985
0.00176587
0.00177104
0.46278
0.000556629
0.547604
0.091053
0.000560598
0.000556736
3.22978
0.000556897
0.000556681
0.578259
0.000556342
0.000556806
0.00056208
0.000556952
0.000556805
0.000556662
0.46876
0.000558628
0.000556805
0.000556829
1.39406
0.000556765
0.000556974
0.000556789
0.000556951
0.000556952
0.000556123
0.355516
0.000556779
0.000556702
0.000556981
0.000564568
0.000556972
0.000556732
0.471449
0.000556813
0.359455
0.000556793
0.577971
0.000556898
0.00233606
0.000556827
0.000556732
0.000556782
7.4699
6.09618
0.000556951
0.000556722
0.00547695
5.9373
0.000556952
0.00170489
0.000556941
9.19564
0.000556968
0.420795
4.01771
0.232962
0.000542656
0.417323
0.000556754
0.000556879
0.00136257
1.41656
0.000561767
0.000556723
0.0005603
0.000556909
0.000556952
0.000556952
0.000556952
0.000557049
0.549471
0.000561415
0.000556952
0.544654
0.000556771
0.000556952
0.000556643
0.000556789
5.30074
0.000556873
0.000556922
0.000556881
0.101768
0.000556607
0.000842331
0.000556974
0.000556608
0.000556914
0.000556971
0.000556748
0.000556951
0.000556931
0.493872
0.000556941
0.000556952
0.000556892
0.000556863
0.922311
0.42523
0.000556952
0.000556823
0.000556942
0.000556767
0.0230895
0.000556936
0.550034
0.000556952
0.000556892
0.442834
0.633643
0.505542
0.000570322
5.06413
0.000556813
0.465663
0.0005568
0.00055544
0.00247903
0.000556888
0.000556759
0.000556093
0.000556952
0.000556952
0.000556941
0.685646
0.000556736
0.000555804
0.000556951
0.000556946
0.818125
0.0013204
0.000556935
8.6795
0.000556867
0.00246657
0.000556944
0.51012
0.00221971
0.000556952
0.0408857
0.00139679
0.000556793
0.556874
0.478924
0.00055696
0.000556653
0.000556976
0.000556924
0.000556742
0.000556764
0.00055683
0.000556663
0.000556861
0.000556797
0.000556841
0.000556722
0.000556952
0.000556766
0.000556874
0.000556945
0.000556681
0.0958451
0.000556952
0.000556859
0.000559859
2.42699
0.000556843
0.000556911
0.0024661
0.000556817
0.0018189
0.373896
0.000556854
0.000556952
0.00055667
0.000556864
0.000556775
0.000556786
0.000556846
0.000556889
6.59521
0.000556863
0.480732
0.000556897
0.00223165
4.34246
0.000556892
0.000556969
0.000556939
0.000493029
0.000556964
0.00056169
0.000556952
0.000556868
0.489428
0.00145821
0.930646
0.000556755
6.7539
2.52082
0.52005
0.00192652
6.76831
0.00204989
0.53007
0.000562332
0.000556792
0.000940504
0.000556971
0.00129918
3.39724
0.00055698
0.000556899
0.000560567
7.32818
0.00124245
0.000556945
0.000556635
0.00150782
0.000556717
0.000564261
0.000555327
0.00165904
0.000556929
0.000556958
0.000556952
0.000556458
0.000556848
0.533329
0.000556913
0.000562369
0.000556952
0.00167484
0.00148859
0.000556952
0.000556906
0.536414
0.49785
0.000556941
0.000556968
0.000556952
0.000556952
0.00145791
0.000556802
0.223022
0.535059
0.000556823
0.000556972
0.682409
0.000546491
0.000556952
0.00190933
0.000560241
0.00096357
0.000599962
0.502442
0.00160822
0.403741
0.536618
0.00539391
0.000557012
0.00232421
3.04589
0.000556577
0.502556
0.00212549
0.694108
0.00123903
0.000556703
3.10045
0.00195609
0.000556834
0.484102
0.000556998
0.46801
0.000556868
0.000556967
0.00231574
0.00245814
4.54333
3.74341
0.633467
1.2595
2.80822
2.2568
6.14074
0.520809
0.000556699
0.000556772
0.000556857
0.536225
0.580164
0.626701
0.76251
0.000556752
0.000556813
0.00126552
0.296158
0.000557015
1.92161
3.15521
0.000577612
0.886829
0.000342391
2.31004
0.000561266
0.000556952
0.000556724
0.511017
1.21841
0.000556952
0.00169963
0.000558966
0.147509
0.421674
0.000556845
0.000556784
0.000556787
0.000556791
0.249516
1.13525
0.000556951
0.000556952
0.000556645
0.46443
22.4625
0.672436
0.000556709
0.000556729
0.000556952
1.83131
0.542787
0.407107
1.31421
0.414832
0.000556858
5.17296
0.416198
0.000556776
2.02023
0.000556954
0.0014635
0.000556952
0.00519826
0.00163652
0.0013988
0.000556952
0.00055687
0.000556959
0.000556875
0.542909
0.00196285
0.000556964
0.000556922
1.66056
0.000556819
0.00380204
1.26447
0.64557
0.000554716
0.000556755
1.41481
1.08608
19.8558
0.000556962
8.8329
0.772563
0.226512
0.000561144
0.258263
0.000556964
0.000556684
0.000556977
0.000556952
0.000556952
0.544327
0.00152184
0.000556866
0.000556952
0.000556833
0.000556952
0.000554617
0.000556607
0.000556743
0.0213833
0.664032
0.000556798
0.000556952
0.0133745
0.191674
0.173553
0.000556949
0.159634
0.000556785
0.000556952
0.000562104
1.78925
0.484413
0.000556874
0.00195237
0.000556909
1.36413
0.000556949
0.000556952
0.000556966
0.000560939
0.179692
0.000556952
0.000556952
3.38335
0.700822
0.00054993
0.000558997
0.000556713
0.426071
0.760781
0.000556944
0.487863
0.00214883
0.000556952
0.000556765
2.22988
5.70457
0.000556952
0.684757
2.11818
0.000556861
0.290923
0.000556845
0.000556952
0.0022846
0.00206391
0.000586586
0.000557257
1.51066
0.000556878
2.84724
0.000556728
0.0005569
1.52961
3.4516
0.764247
0.256948
0.000556952
0.000558944
0.00131997
0.00140445
1.89924
0.23575
4.82226
4.52725
0.000556621
0.000560152
6.47838
0.000556702
0.583147
0.000556899
0.000561094
0.602664
0.260551
0.000555548
0.000556517
0.000556675
0.000556673
0.000557487
0.000556949
0.000556871
0.000556952
0.000556952
0.556649
0.000556952
0.000560806
0.000556952
0.875758
0.000556727
0.000556817
0.000556801
0.411495
0.000556824
0.000556979
0.000560162
0.000555724
0.000556892
0.000556965
0.000603284
0.000558798
0.000556994
0.000556913
0.00055694
7.68032e-05
0.000554061
0.00202617
0.000930155
0.001679
0.000556919
0.00238982
0.00275304
0.400785
0.0005569
0.00055685
0.0018973
0.26621
0.000556952
0.365114
0.00256185
0.000556952
0.000556952
0.0908484
0.000558143
0.000559886
0.562808
0.000556952
0.000556832
0.0005569
0.00186728
0.466554
0.000556935
0.00205996
0.000556822
0.00132349
1.27001
3.042
0.00170037
0.000556824
0.633921
0.000556777
0.000556952
0.00055688
0.000556794
0.000563114
0.000554189
0.114379
0.000556929
0.000558935
0.571198
0.00211537
0.000556808
0.00055753
0.000556944
0.627759
0.00276289
0.513981
0.000556819
0.415609
0.373461
0.00162841
0.000556976
0.0013383
0.000556881
0.002061
0.000556946
0.000556793
0.00172672
1.44498
0.458605
0.000556919
8.4087
0.000555083
0.387287
0.00055688
0.000556705
0.000556844
0.000556931
0.000557064
0.000562103
0.000556831
0.000556679
0.000556824
0.000556889
0.000556949
0.000556824
0.469785
0.000567579
0.0839801
0.000556794
0.000556852
0.0018293
3.6341
0.000556828
0.00055683
0.0015549
0.000556695
0.000558248
0.000561152
0.00285864
0.635443
0.000556952
0.000556719
0.000561809
0.000555524
0.000556754
0.00055701
0.000556796
0.000556952
9.81695
0.000557028
31.6799
0.000556736
0.000556916
0.000556433
0.000555586
0.00165657
0.000556755
0.000556952
0.000556952
0.000556707
0.131555
0.000556952
0.000559877
0.508512
0.000554738
0.473326
0.000556685
10.5406
0.000556887
0.000556912
0.64729
4.48018
0.000554291
0.000556725
4.99015
0.00198939
0.000557
0.000556936
0.000556952
0.000556953
0.000556939
0.464193
0.573322
0.478625
0.000556952
0.517759
0.000556917
0.000556743
0.000557282
0.00119712
0.000904669
0.000556682
0.000556777
0.000556711
0.000556794
0.000557551
0.000556952
0.000556801
0.000555938
0.000555031
0.0111776
0.00208553
0.000556952
0.0911775
0.172348
0.000553776
0.431741
0.0497165
0.000556952
0.000556696
0.00055656
0.358372
0.000556952
0.000556952
0.449534
0.00208406
0.000556699
0.000556952
0.000556952
0.000556952
0.000823675
0.110529
0.00055683
0.000554612
0.401521
0.000560041
0.000558462
0.99414
0.000556703
0.000556778
0.000556975
0.000556891
0.461058
0.000561345
0.000555901
0.000556704
0.000558855
0.00190247
0.000556952
0.401027
0.00147488
7.32579
0.000556952
0.000556952
0.000556923
0.000556935
0.000556917
0.000556952
0.0481403
1.23821
0.00122577
0.0119951
0.000556952
0.00133079
0.000556897
0.000556937
0.000559035
0.000556952
0.000557079
0.000556763
0.000556952
0.000556999
0.000556736
0.000556627
0.145607
0.000556848
0.667131
0.000556893
0.553044
0.537727
0.000556952
0.00137243
0.53939
2.13251
3.75847
0.0362438
0.000556946
0.000556976
0.000556952
0.000556976
0.0983348
0.000556972
0.127444
0.0928881
0.044049
0.0975254
0.000923742
5.19317
0.000556952
2.20853
6.27239
0.000556709
2.3564
0.0437027
0.000556836
0.000556949
0.000556848
26.8737
0.000556577
0.496235
0.00171847
19.2367
0.347053
0.562173
0.00247087
0.000556952
0.000556741
0.00055673
0.000556845
0.000555873
0.000556737
0.000556784
0.000556803
0.110516
0.00265815
0.000556762
1.11581
0.000556849
0.000556871
0.000556953
0.000556846
0.957765
0.364527
0.000556956
0.000556772
0.000556951
0.488971
0.0588876
0.00055686
1.46601
0.51256
0.0480264
0.000556853
0.000556672
0.589502
0.559194
0.000556699
0.000558948
0.000560325
0.000556583
4.92421
0.000556748
0.361053
0.000564418
0.000556945
0.000557018
0.00055688
0.000645411
5.98246
0.000556746
0.000556753
40.5495
0.0808344
0.447017
0.000556851
2.41302
0.941427
0.000557063
0.000556963
0.000556995
0.650533
5.91842
0.00055684
0.00156959
1.24661
0.000556918
0.000757764
1.31338
0.000556776
0.000556786
0.000562953
0.000556824
8.62517
0.000556868
0.000556535
0.0553361
34.6941
0.000972425
0.000999493
3.73696
0.00055669
4.32734
0.346577
0.000556876
0.614856
0.286387
2.64092
1.63531
1.98207
1.92893
0.000556915
2.03415
0.451604
0.000596116
0.00055691
0.000556626
0.000557081
0.000556818
0.000556787
0.000556886
0.000556693
1.38543
0.000556783
0.000556705
0.0111346
0.000556879
0.000554961
1.65471
0.0552994
0.00149092
0.000647893
0.0005569
0.462528
9.05825
0.44962
0.0005568
0.000556868
0.000556944
0.176129
3.36122
0.00249654
0.000544175
6.94057
0.000556754
1.32913
0.000323515
0.000556806
0.163674
0.00199329
0.000556794
0.0263527
0.000556871
0.000556803
0.205444
4.05323
2.81486
0.0005567
0.000556671
0.000556952
0.000556704
0.00055965
0.00407884
4.56958
0.000556952
0.000556864
3.73834
0.000556807
0.000556967
0.299407
0.000556786
2.58629
2.90915
0.00055684
0.000556856
3.05142
1.05657
2.87823
1.3358
0.000556912
7.58774
0.575673
0.00303581
4.74273
1.53362e-05
0.588999
0.000556743
0.000556938
0.0004539
0.345267
0.00263299
0.000556667
0.293933
0.445903
5.38633
0.081165
0.000556952
0.0393385
0.412372
1.64762
0.000556952
0.000556954
4.83886
0.000556701
0.000562402
0.157038
0.000566154
7.78304
2.37412
0.00320413
0.000963076
0.000556883
0.000556747
2.89746
0.24364
0.000550183
0.000557274
0.000556952
0.163861
0.000562057
0.168883
13.9155
0.000558114
0.322428
1.72104
0.221873
2.53172
3.22445
1.55678
0.000559057
0.537376
2.93693
1.43709
0.00123535
0.000556773
3.00318
0.000556673
0.000417737
0.00238428
0.475643
0.462576
1.82494
0.00217442
0.55888
3.28925
0.000556807
3.63402
0.00239847
0.56429
1.4815
0.000556753
0.631136
0.259172
2.191
0.00254982
0.000556957
0.566764
0.000556952
0.00168099
0.741589
0.00140252
0.000556652
0.452215
0.244704
0.000556977
7.18599
0.000556952
0.000557052
0.000556906
0.000556823
0.720274
0.00133422
0.000556947
0.138471
0.360491
0.000556713
0.000557385
29.405
0.000557003
0.000556939
0.000556998
2.89462
2.30054
0.000556758
5.74389
0.000556952
1.77618
0.205998
0.000570176
0.464159
0.818865
0.0655376
0.00428457
0.000554789
0.343562
6.92325
0.139876
2.81844
9.71293
0.00166258
2.52946
0.000556623
6.08163
0.000554689
0.445826
0.000557922
1.88985
0.000556928
0.00155422
0.000863853
0.933416
0.258727
0.0015114
0.000556846
4.10783
0.421524
0.000556942
0.000556952
1.77674
0.0851514
0.000553676
0.605783
0.000556895
3.49924
1.215
0.609876
0.000556599
0.000556696
1.75586
0.877471
0.00190951
0.000556906
0.00190807
0.000556891
0.000556607
0.254007
0.000556952
0.474915
0.429965
0.000556777
0.398937
0.000556817
1.34643
0.468349
0.000556952
0.00285809
0.684747
0.00055696
0.000556952
0.00055659
0.191009
0.0005568
0.000558734
0.000559622
0.0022464
0.000558184
0.000562706
0.000556881
0.000556711
0.000556771
0.000556704
0.000556797
0.000556557
0.000556558
0.000556787
0.000556842
1.86878
0.000557737
0.000556855
2.26438
0.0172647
0.000556921
0.000556904
0.000376932
0.000556952
0.00209507
1.57937
0.000556999
0.000556671
0.000558429
0.000499039
0.248458
0.133103
0.00294828
0.384758
3.91076
0.000556874
0.000557026
7.10008
4.53846
0.00199161
0.602282
0.000556656
0.000557097
0.640994
0.00215409
2.56612
0.00197707
0.00242014
0.00120423
0.000556974
2.8722
0.000556773
0.000556982
0.00241208
3.39932
2.31802
0.351943
2.89695
0.00139975
0.00132306
0.00665822
0.000552189
1.69109
1.96065
0.00136392
0.542162
0.000556914
2.25356
0.000556979
0.0409132
0.000563316
0.876032
0.000556915
3.16657
0.000559652
0.000556798
0.00209994
2.21352
0.556475
0.13163
0.000556812
0.000556948
3.51829
0.000556855
0.000556952
0.245186
0.000556952
1.60703
0.00055512
0.000558111
0.000571854
0.000556903
0.000556765
0.000556952
1.41589
0.00055686
0.372125
0.186697
0.000556816
0.000556826
0.000556583
0.000556945
0.000558569
0.000556911
2.93961
0.000556983
0.000556983
0.000556952
0.00213915
0.366934
0.000557054
0.000562688
0.000556743
2.06916
0.000550795
0.000556866
0.000556874
0.000556757
0.00055689
0.551591
0.000556747
0.000556826
0.000556723
1.65763
0.000552158
0.000556628
0.000556847
0.544821
0.000558303
0.000559817
0.599208
0.000557064
0.000563004
0.000550631
1.80784
0.000556811
0.000556813
0.000499127
1.34393
2.81921
0.000556406
5.0042
4.74558
3.9016
0.000556876
4.82779
3.29222
0.00175532
0.000556629
6.10471
4.26393
0.00055702
0.000557179
0.000556656
0.000556812
6.21848
4.7235
0.000556917
0.0005569
0.000537767
0.000556705
0.000558435
0.525852
0.00055677
2.3765
6.26431
0.00055696
0.000586335
0.160454
0.000314592
0.00167383
0.000558194
0.000556579
0.441036
0.000556821
2.88911
0.000557001
0.000458916
0.000556786
0.581547
0.00211876
0.000556911
0.000552802
0.00055677
0.000556822
0.0122675
0.000558752
4.44312
0.000556801
0.146182
0.17325
0.00269265
0.000556967
0.229694
0.614702
0.000556775
0.162885
0.0712209
0.00275734
0.000556725
0.00055681
0.521148
3.0811
0.144906
0.0423628
0.000556747
0.000556952
0.00386309
0.00055687
2.3215
0.000556847
0.000556698
0.0022909
0.0184171
0.000556782
0.000556952
1.65778
0.000556952
0.000556937
0.00055692
0.000556952
0.928659
0.543616
1.94337
0.000556952
0.000556876
0.000556955
4.38777
0.00012668
0.495617
1.33697
0.00217916
0.000556895
0.000556911
0.000556776
0.000556952
2.59103
2.12483
0.000556952
0.000556818
0.000556878
0.000556776
0.460978
0.000556952
0.517959
0.000556952
0.545237
0.00191298
2.02804
0.000556956
0.000556851
0.000556952
0.000564938
0.000562447
0.000567903
0.000556949
0.441839
0.000566631
1.16302
0.39036
1.22319
0.000556927
0.000556788
0.000556974
0.000556777
0.000543259
3.43336
0.000556842
0.000556797
0.000556776
0.575683
0.934359
2.46142
8.31213
4.10809
0.488144
0.00285294
23.6875
0.00054345
0.433235
0.00055209
0.000555308
0.00257912
0.131822
0.446228
0.005325
0.000556416
0.486482
0.650601
0.00055673
0.000556727
0.00055938
0.000559965
0.000556861
0.000556679
0.00170485
0.216387
0.000559511
1.59756
0.896403
0.000556785
0.000556952
0.000556952
0.000556995
0.00055674
0.000556716
0.000559078
0.00257042
1.52974
0.000568056
1.04082
0.747184
0.000559107
1.71393
0.525401
0.000555658
0.00153212
0.633575
0.000333887
0.00173671
0.00165811
5.06767
0.643583
0.000557478
6.18139
0.000556711
0.000556805
0.317801
0.000556813
0.000556672
0.000556628
0.000556956
1.10157
0.00056011
0.000556565
0.000555352
0.000556952
0.000556793
0.000556539
0.00055684
0.000557387
0.591764
0.000556735
0.943075
0.000556981
0.000610019
0.00056652
0.000556825
34.6693
0.000557192
0.00055666
0.383551
0.0171302
0.00055702
0.000554507
0.000136405
0.0104822
0.211381
0.000699831
0.000556952
9.25332
0.000556816
0.000556852
0.000556845
0.119354
0.000556713
0.000556856
0.000556982
0.816301
0.00150072
0.000556898
0.00155238
0.000556734
0.598613
0.00218578
0.000556824
0.165887
0.000556966
0.000556834
0.000556769
0.000556768
0.000556803
0.00055687
0.00164498
0.000556743
0.000556856
0.000602988
0.595647
3.59283
0.000559279
0.000569258
0.00263168
0.000560418
0.164073
0.424952
0.0436273
0.000504086
0.000558553
0.00160313
0.000557028
0.000350599
0.000557931
0.703511
0.370207
0.00195021
0.476058
0.688993
0.000556592
0.000556944
0.759097
0.00055672
0.000556805
0.0391047
0.00186866
0.000556612
0.000556841
0.000198932
0.000556932
0.000556667
0.000556634
0.000556952
0.000556832
0.606065
0.000556886
0.00055686
0.000556957
0.000556965
0.000556952
0.126408
0.214966
0.00243018
0.000556919
0.00142712
0.00386347
0.000556844
0.000556753
0.000556791
2.02991
0.472228
6.24751
0.000556816
2.89451
0.000556851
0.000556932
0.217858
0.39555
0.000556773
0.000557409
0.000556952
0.000556632
0.000556857
0.000556931
0.000556753
0.000556723
1.02351
0.0633712
0.672058
0.000556838
0.000556838
5.47183
0.000556854
2.52079
0.000556781
0.00141651
0.00055662
0.000556909
0.000556793
5.70046
0.0952681
0.000550053
0.000476025
0.000556621
0.000556952
0.00014038
0.00055701
0.789105
0.00167536
2.7029
0.416348
0.000556952
3.04085
0.000556952
0.000556811
0.000556952
0.000556952
0.000556791
0.000556753
0.563281
0.000556961
0.00419257
0.000556952
0.000495929
0.000556776
22.1113
0.000556686
0.000557058
1.09051
0.55371
0.00055673
0.000556814
0.000556914
0.000556887
0.0499577
0.000556983
0.549753
0.000556662
0.000556866
0.00613001
2.68708
0.000556673
0.000593233
0.000556855
0.000453369
0.000556952
0.000556952
6.62861
0.000556681
0.000556952
0.00148597
0.000556952
0.000556783
0.000556805
0.000556967
0.000557297
0.00428664
0.000556857
0.000560602
2.99283
2.54886
2.39579
0.000556774
0.000556768
31.7052
0.000556788
0.000571242
2.11416
0.000556681
0.13531
0.160934
0.88888
0.517448
0.000556542
0.000556811
0.000556887
0.000556936
0.000556935
0.458715
0.000556958
0.441559
0.000557003
2.68625
0.0136478
0.000556891
1.27567
0.000556783
0.000556845
0.00072788
41.7825
0.649041
0.000556952
0.377127
0.000556655
0.000556952
0.000556667
0.000557109
0.000556673
0.000556952
3.02917
0.473034
0.000596092
0.000556922
0.000560897
0.000556785
6.45551
0.000556952
2.61316
0.000556785
0.000556952
0.000550776
0.00188416
0.000556966
5.52461
3.76282
0.000556691
0.00055677
0.000556775
1.15
0.000556778
0.000556841
0.000556818
1.17097
0.00055761
0.000556952
0.000560904
0.482987
2.815
0.81323
3.20789
1.22238
6.85093
0.000556798
0.000556606
0.000557498
4.50585
0.000556689
0.000556707
2.43116
0.00106468
0.16141
0.000556679
0.000556684
0.503255
0.462836
3.77336
0.000556835
0.000556663
2.10365
59.2064
0.00859069
3.04946
0.111702
0.00055674
0.000557038
4.25399
0.000556829
0.000556723
0.00183736
3.20884
0.00135739
2.96292
0.514553
3.05972
0.00055683
0.270131
2.71076
0.00055671
0.000556715
4.59439
0.000562485
0.000556821
0.000556687
0.00055691
0.000564633
0.00722033
0.00056135
2.99481
0.000556806
0.000556952
0.000556618
0.000547435
0.00118743
0.085747
0.000556882
0.000557435
0.000556914
1.29695
3.55252
0.000556853
0.000556798
0.000503281
0.000556792
2.98793e-08
0.000556851
0.00055695
3.12618
0.000560212
1.65363
0.000556857
2.37439
0.000556827
1.34771
1.44366
2.82652
0.000556797
0.000567066
2.32912
0.000557062
0.000556747
0.00055671
0.000556812
0.0311023
0.141593
1.83154
2.65326
2.15366
6.19413
0.00180449
4.26435
0.00194028
0.00204461
0.000556981
0.000556987
0.00254293
0.000556914
0.0015394
0.000556867
0.000557877
0.00055674
0.00189875
0.000556781
0.000565206
0.00180843
0.000556835
0.000556773
0.000556865
0.000557023
0.00055667
0.000556784
0.35803
0.000556886
0.00055672
2.49488
0.00055683
4.30459
4.21923
0.481477
4.73697
0.473505
4.81067
0.52601
0.000556952
0.000556951
0.000556877
0.418759
0.000556944
1.54424
0.000556818
0.000556046
0.000556765
0.000556829
0.000557032
0.000556841
0.000556996
0.000545107
0.000556919
0.556281
0.000556909
0.000556796
6.64812
0.00056025
0.000556728
2.24931
0.400952
0.000556835
0.000556952
0.000556801
0.69554
1.33691
1.80204
6.61787
2.33448
0.000556949
0.000556709
0.000556785
0.000556608
0.000556939
0.000556815
0.00174878
0.000556828
0.000556805
0.000556797
0.000557799
0.000556739
0.000556775
0.000556702
0.000557611
1.27181
1.03286
2.89263
0.0300523
0.192741
0.000556898
0.000556844
2.82972
0.000512804
0.000556855
3.11774
0.00225142
0.00055666
0.00055682
0.00340482
0.603963
0.0556237
0.000556824
0.000556952
0.00203321
1.60697
0.000556952
0.00055678
0.000556952
0.0256375
7.63551
0.000569851
0.00224731
0.000556766
0.000556913
0.000556944
0.000556806
0.000556717
0.000556906
0.000556834
0.000556903
0.000556936
0.000556887
0.000556856
0.000556688
0.000556859
0.397971
0.000557048
0.0194977
3.07767
2.99539
2.54902
0.481173
0.525206
0.709686
0.79346
0.000556952
0.000556796
0.000585913
0.0506944
0.234519
0.408851
8.42386
2.21947
2.45044
2.51622
3.94201
0.00165987
0.000843928
0.00056631
2.76446
0.216832
3.41513
0.00055679
0.000556968
0.000556827
0.00055663
0.439322
0.751298
0.0103865
5.14752
0.0041165
0.000556755
0.00055687
0.00055694
3.03418
0.00106901
0.000556431
0.000556876
0.697562
0.00015629
0.000556847
0.000556867
0.000559071
0.000556757
0.000556679
0.000556997
0.482395
0.000553038
0.000556675
0.000557194
4.48737
0.000558404
0.00020177
0.000570653
0.000556611
1.12854
0.000556863
0.000559071
0.000556792
0.0578826
0.194165
0.557173
0.000556863
1.59668
0.000556801
0.000556833
2.33153
0.828744
0.766405
2.70763
0.625666
0.000556952
4.78888
0.000556986
0.000556952
0.000556952
0.000560925
0.000556952
0.0922245
0.000556867
0.316432
2.44269
0.000556847
0.00055684
0.00183265
0.000559268
0.564858
0.000556768
0.00555323
0.000556737
0.000557331
3.16999
0.000556908
0.000556842
4.1326
0.000556859
0.000556852
0.00055668
7.01919
1.29071
0.000556889
3.04037
0.000556834
0.000556571
0.000556866
0.000556976
0.000556978
0.000556805
0.000556832
0.000556952
0.000556894
0.000560149
0.0178597
0.000557586
0.000158252
0.000556579
0.00354068
0.00220491
0.125116
4.07488
0.000556952
0.000556952
0.000556804
3.74458
9.39107
0.000556952
0.000558882
9.61469
5.32198
0.933574
1.55741
1.89226
0.000556738
0.410111
0.430551
0.000553864
0.000556966
0.000556821
0.000319049
0.573281
0.000531547
7.35438
0.000556742
0.000556855
0.302615
28.6726
0.000557678
6.60417
6.26148
0.000556892
0.000556766
0.00205296
0.00055682
6.20393
0.00194479
0.00202736
0.00224506
0.000556775
0.000556775
0.396513
0.00740476
0.000564905
0.000556848
0.000556779
0.0005569
0.000556767
0.000556686
0.451871
0.345653
0.285864
0.000556799
0.00055676
0.000556832
0.000556743
0.000558272
0.00055683
0.000563771
0.000564851
0.317661
0.000556809
0.358799
0.45329
0.000556599
0.000556707
0.000556633
1.8961
0.000556758
0.00031645
1.58164
0.557227
0.000547987
0.000556802
0.000556656
0.000556941
0.000558219
1.66923
0.000561612
0.000556668
0.123255
3.12775
0.000555859
1.39592
0.000548193
0.638668
0.000685715
0.000556685
0.8848
0.000556813
0.000556933
0.000556381
0.000558008
0.000558325
0.000557454
0.00266655
0.000559315
0.000971251
0.000560764
0.110171
0.00056032
0.000556831
0.000476114
0.000561638
0.0023613
0.402318
1.60786
0.0005634
0.0259271
0.00179164
0.000556972
0.00277776
0.600799
4.20422
0.00216079
0.18145
0.000556718
0.00274923
2.61841
0.000556798
0.775437
0.707406
1.25429
0.002058
0.00224891
0.300332
0.000556608
0.000563178
0.00287494
8.67703
0.00050142
0.000556866
0.0500661
0.000562171
0.000556647
0.00212329
0.921008
6.99257
0.000556877
0.29965
0.000556749
0.29986
0.000545937
0.000556945
0.714591
0.000556533
0.00225785
4.65976
0.0973412
0.0021025
2.88538
0.000559688
0.0657206
0.000556562
0.549735
0.563287
0.00809218
0.000563935
0.000697342
1.28682
2.65587
2.11204
0.000562583
0.00056215
2.72809
0.000557042
0.000556722
3.548
2.57957
0.0020522
0.000556861
0.000556734
0.000556661
0.543026
0.000556906
0.000556925
0.000556696
0.0691949
0.00055956
0.00055695
4.82013e-05
0.0023591
0.000556888
0.000556783
3.66863
2.73913
0.000554436
0.000556866
0.606046
0.297058
0.000556506
0.248353
0.00264867
0.00218352
1.26401
0.000556725
0.149119
0.00167821
0.000556933
0.000560059
1.671
0.0182058
1.30011
0.000556686
8.12027
0.421013
0.00445109
0.342825
0.68807
1.79409
1.95345
4.26177
0.342427
2.93194
0.482555
0.000556755
0.000567602
0.505733
0.000557037
0.000556619
0.461738
0.185429
0.00055671
0.000557324
0.000556937
0.000556975
0.00201349
0.457474
0.000556914
0.162817
0.000556725
0.000556569
0.362959
0.573324
1.49536
0.000558901
0.70276
9.73676
1.42364
5.55483
0.000558302
0.000556847
0.000557638
0.000556687
0.00165092
0.0020566
0.000556822
0.000556858
2.99038
1.4124
0.00276592
6.28721
0.457964
6.81242
0.00178469
1.61323
0.000564264
2.53631
0.00172587
0.463742
0.000561499
0.000556952
2.79765
0.000556952
0.00055696
0.000555968
0.000556952
0.000556952
0.00136792
0.451775
0.0713363
0.000556952
8.34052
5.76796
0.00134873
0.000556771
0.000556749
0.000556932
0.000556842
0.0933385
0.000556953
0.628096
0.627785
0.000556256
0.0005569
5.22574
10.3137
0.887786
0.568907
0.00056308
0.00226753
0.529301
0.000556946
0.000556952
0.000556975
7.82541
0.000556846
0.000556733
0.000556759
0.00055685
0.00154162
0.00056369
0.000559158
7.29855
0.000939849
0.00294468
0.000553815
0.482226
0.540348
2.89331
2.71224e-05
0.000556984
0.444106
0.000556947
0.00055671
0.000561332
0.631825
0.000556785
0.00160289
0.562791
0.000556952
0.000556652
0.434615
0.000557381
0.000556787
3.75356
0.570444
0.00056038
0.577757
0.000556813
0.000556828
0.000556767
0.000556947
0.000556727
0.729301
0.000556761
0.78831
0.00174992
0.000556952
0.000556952
0.287076
0.000561905
0.411689
0.00175902
0.000556952
0.000556717
0.000556972
0.000556877
0.00132413
0.477712
0.000556739
0.00156465
0.488986
0.000556711
0.000556952
0.00141675
0.000559688
0.000556963
0.0014558
0.00138462
0.000556803
0.000556969
2.10584
0.438064
0.00153779
0.448272
0.545371
0.000572266
0.580211
0.000556719
0.000556632
0.000556725
0.000556798
0.000556952
0.000576276
1.0296
0.000556973
0.00175732
2.30763
0.00205097
0.000557269
0.000556665
0.620739
0.056642
0.0016508
0.444983
0.000556633
0.078551
0.000556946
0.000556972
0.000556926
0.000561469
0.404076
0.000556966
0.54418
0.000560507
0.000556952
0.000556952
0.000556652
0.00154306
0.00131773
0.448706
0.718569
0.000556952
0.000556952
1.01331
1.24139
0.000556949
0.000556864
0.836536
0.774628
8.42916e-05
0.565318
0.000339403
0.000556981
0.000556951
0.000556952
0.000556735
0.00138733
0.600111
0.64752
0.000556956
0.000556751
0.00145691
0.000569945
0.44706
0.000556952
0.000556803
0.00055681
0.00156567
0.00139997
0.00207522
0.000556773
0.00168157
0.527107
0.000556821
0.000556777
0.000539396
0.520502
0.000566715
0.000556754
0.000556649
0.00055674
0.000556952
0.518951
0.00181153
0.000556969
0.000556952
0.667489
0.000556835
0.000556897
0.368395
0.372553
0.00164473
0.000556679
0.000556952
0.00161946
0.000556952
0.000556925
0.000556654
0.000561662
0.000556932
0.000556952
0.000556947
0.000556937
2.24213
0.000556952
0.000556903
0.00233555
3.41075
0.751318
7.05582
3.65108
0.000556618
0.369843
2.5483
2.06822
0.00142766
3.01329
0.000560586
0.47547
2.43488
0.107599
2.89269
0.0021824
2.59198
0.0788123
0.767632
2.39083
0.000556847
0.000556951
0.0173412
0.000556839
6.76352
4.96602