/*--------------------------------*- C++ -*----------------------------------*\
| =========                 |                                                 |
| \\      /  F ield         | OpenFOAM: The Open Source CFD Toolbox           |
|  \\    /   O peration     | Version:  2312                                  |
|   \\  /    A nd           | Website:  www.openfoam.com                      |
|    \\/     M anipulation  |                                                 |
\*---------------------------------------------------------------------------*/
FoamFile
{
    version     2.0;
    format      ascii;
    arch        "LSB;label=32;scalar=64";
    class       surfaceScalarField;
    location    "0.5";
    object      phi;
}
// * * * * * * * * * * * * * * * * * * * * * * * * * * * * * * * * * * * * * //

dimensions      [1 0 -1 0 0 0 0];

oriented        oriented;

internalField   nonuniform List<scalar> 
62453
(
41.1634
-1.9974
-21.8682
-12.8253
20.8446
-5.83572
-20.8549
7.2194
7.59562
-0.478231
-6.5591
1.99131
-4.49195
-0.382573
-1.46858
10.6393
4.45877e-09
-2.2003e-09
1.34973e-09
-6.17154e-10
-27.6825
4.92547
8.83706
15.0931
-15.1404
3.53396
-84.5886
-58.2157
21.0301
-31.6184
-36.185
3.86947e-08
-1.44367e-08
-5.1642e-09
5.59434e-09
-17.4489
0.945823
30.9548
-12.5387
1.91921
-56.0455
47.6972
22.7118
-2.43797
-20.9086
0.625936
-17.0204
-4.77565
11.3432
-4.87804e-11
-1.06446e-11
1.04407e-11
7.63743e-11
2.67007e-11
2.49645e-11
-4.23038e-13
-12.4016
7.7023
17.2898
-14.1917
-16.2247
16.0426
-9.84815
9.44178
16.342
15.912
16.5658
-46.1387
47.6909
-45.4124
20.5894
-17.233
1.21059e-08
-4.90669e-10
-4.76251e-09
1.02186e-09
4.09506e-11
3.47825e-11
6.1193e-11
-1.77509e-11
5.54042
6.17242
11.7039
-18.4782
-0.0250601
0.0379089
-0.052653
0.0870386
3.19793e-12
4.07256e-11
-26.3066
29.3403
-10.3185
9.87084
8.79336
-0.767692
-6.07651
1.5998
-20.2588
-0.700526
-4.42068
4.01033e-11
78.108
1.65423
-80.3834
0.78872
-8.40963
10.8954
9.99971
10.2036
15.7602
-25.8147
-5.98083e-09
1.12105e-08
4.30784e-09
-8.7451
50.4622
68.318
-143.601
1.93244
-13.7012
6.55906
5.37693
24.7012
-77.2478
39.5178
-4.97621
-30.193
3.81249
-2.75298
16.6591
5.91137
13.2025
-8.09598
-0.0731515
-7.0693
6.32148
-9.55879
-1.49178
-13.3551
26.4026
-3.68318
-6.54337
-8.38627
-7.06092
46.2132
-21.8914
-2.28577
-0.661358
3.20048
0.838519
-0.235371
1.05691
-0.0901968
-0.11557
-0.000983128
0.00270069
-0.000418901
0.00120865
-11.2033
-2.66547
16.138
-11.7276
-0.988283
4.20714
8.37784
39.6202
29.2274
-24.2013
-47.2673
9.47406
18.4314
-24.4982
8.18999
0.0112883
-0.0116007
-0.00840093
0.0185435
-17.9563
90.981
37.171
-104.35
30.9691
-6.5067
-6.49577
0.292311
-0.254266
0.0210627
0.138706
-3.06924
5.81976
-1.10423
54.5004
-40.777
-42.2146
27.7962
0.235581
0.831514
-0.54921
0.0205992
-3.45072
-3.129
3.18713
3.46
3.08634
6.69554
-1.30343
-5.9088
-33.7807
3.17286
72.8847
-44.9235
8.94823e-05
-2.75602e-05
-0.00011373
0.000520752
-0.000111226
-6.66718e-05
11.576
7.74465
-22.8448
-0.000358956
0.0282982
1.02525e-06
-2.174e-07
1.8613e-09
-3.51026e-07
-7.15356
-3.6741
1.88796
6.31596
-115.149
7.40022
28.2392
75.0066
2.00207
-0.166191
-0.70735
-0.747929
13.8879
-18.4996
1.07543e-08
-8.37522e-09
1.97097e-08
-4.2002
11.813
-6.98217
0.776546
4.26628e-09
-4.11647e-08
2.53545e-07
-8.73522e-08
-12.8009
31.7112
8.93564
-27.2908
-0.000241206
0.00298887
-0.00127721
5.92622e-11
1.01127e-11
-1.01102e-11
-2.39644e-11
-1.46885
-0.901752
-0.16703
5.09482
38.256
14.6766
-8.26598
-42.2817
-156.163
72.7263
86.3706
2.9056
-1.39472
-1.04555
1.07782
9.25485
-5.89706
-5.29119
-5.73641
-0.857969
1.13072
5.49309
1.43289
1.58879
-0.642379
-1.58284
-1.07835
0.126314
5.63439
-3.48018
4.30721
-0.301706
2.28954e-07
-1.58919e-07
2.12203e-07
0.0478982
0.145119
-0.100124
1.21613
-1.2331
0.130517
-1.41562
-4.79122
5.09888
-5.75485
5.23315
-63.2949
0.781927
63.4424
10.926
-14.2253
-27.8054
24.3774
0.883257
-4.01785
-3.12094
10.1314
-1.83959
9.68477
-7.28802
1.61943
6.91527
-0.424953
7.94561
-14.6362
2.44836e-11
4.31754e-11
-0.835926
-3.84653
10.4935
-9.74064
-6.0651
15.0143
0.918734
9.12168
-3.27025
-2.98493e-11
4.08418e-11
6.50887e-11
7.95331e-08
-1.22955e-08
-2.16373e-08
3.27775e-09
1.03758e-08
5.60163e-08
-3.99897e-08
5.21577e-11
9.22524e-12
-4.55255e-11
-4.2488e-11
10.0925
-10.8986
5.34175
-12.1679
-7.3383
-1.82855
-0.0652923
9.17628
-1.53145
24.492
-22.9221
9.86559
0.814606
3.4576
-10.0869
-2.84953
58.0815
-16.8924
-36.0743
18.6984
20.5617
-49.206
8.57096
-20.7479
6.89536
9.70115
-12.4803
4.02078
6.49093
1.4977
23.7344
-8.48938
-41.5482
15.8719
-1.91488
-15.019
-3.94199
16.378
172.464
-61.0907
59.4489
-184.672
31.7244
-3.63781
-20.8806
-11.9849
-1.50922
10.9176
3.07407
-2.01693e-05
2.08928e-05
2.54356e-05
-8.48198e-06
-4.62659e-11
1.21598e-10
1.13857e-11
-24.4464
-23.9395
46.6688
12.2512
-15.8857
8.34307
-5.44584
-20.3805
4.31324
0.000982023
15.4401
2.70187
9.54498
8.55766
-18.1555
5.82839
-58.4218
5.61343
30.8543
-92.4932
56.1603
-49.3659
95.2926
-4.75081
0.415169
-4.50158
12.2305
1.18468
-2.29255
4.56264
-3.20461
15.3667
-4.70576
-8.55124
-3.78016
-8.39044
-3.59399
-10.0538
16.2496
-26.5718
28.0576
11.5903
0.977426
1.10811
-13.5491
-0.709964
4.74242
-6.25422
6.0586
-4.37199
1.01935
-0.744983
8.45255
0.584336
7.34422
-14.9368
-1.20984
0.0857407
23.3412
-20.3263
-20.7935
26.2825
5.96866
17.1611
-7.0275
-17.2626
16.6243
-21.1077
3.33601
-2.50788
21.893
-5.58611
-4.03804
-2.59185
12.4709
-0.973083
-0.856515
1.86634
-19.2655
3.63793
-23.8313
36.3995
1.68278
2.44213
-14.1588
8.08197
-3.18148
7.21496
-2.09397
-0.888748
3.85919
-7.29908
8.70342
2.06625e-06
-1.2976e-06
1.56049e-06
-6.96179
5.5291
-5.83833
7.19689
-10.0865
17.9411
-2.22595
-3.99839
10.8029
-5.13876
-1.92012
-3.77504
-166.826
67.7695
29.5291
104.532
7.88418
4.11288
-11.0675
2.47302
2.62256e-11
-3.39009e-11
-2.41354e-11
7.04686e-11
-2.67178
34.2095
-29.6072
-14.671
-3.4458
6.90067
-7.92064
4.47407
-5.17593
6.69142
-2.59073
36.5234
27.0753
-22.29
-36.3764
4.51451
20.0977
-21.3155
-3.35749
-11.6503
4.44611
5.62262
4.37342
0.474128
-0.651688
1.13459
-0.335624
-1.48768
6.0397
0.680799
-3.09854
-5.22284
4.64834
-3.57542
6.69166
-28.7245
-6.93511
14.906
15.363
3.20705
-25.3279
23.8293
-7.2384
-36.2484
1.81487
4.52657
-0.167141
-2.45869
2.66855
1.70643
-1.44123e-10
1.66536e-10
4.32086e-11
2.5999e-11
-1.1339
1.21338
2.78835
-1.26149
4.40307
15.8113
-22.0764
7.57808
1.60792
-4.48817
7.63023
-4.14899
5.26489
1.23823
-0.285517
-3.44981
-14.3698
3.87327
-2.9336
20.6233
-6.39807
13.1663
2.72777
-31.4347
92.4311
4.28373
-115.192
-0.554441
-3.55511
0.0436586
3.91464
-10.8468
9.23477
-47.8634
48.0977
0.372763
3.56746
0.156577
-4.10846
0.000806321
-0.000621466
0.00114231
-0.00052515
-1.20567
-1.89095
3.10534
1.22507
3.20534
0.317029
-0.0389966
-3.46314
-3.83703
-6.56027
-5.02727
15.9725
4.90953
0.135823
4.13894
-8.90971
-0.0704251
-0.0741362
0.38715
-0.0488116
-0.11771
0.114709
11.9114
-15.226
-11.2965
-2.78215
-0.0785809
11.0731
8.56195
4.07108
-12.1996
-0.0758264
2.01525
-20.6215
17.8424
2.57005
-1.00578
-8.07255
-10.3649
24.088
-7.64966e-10
-6.65587e-10
4.17339e-09
9.01679
-20.9029
5.98938
6.45808
9.07874
10.6045
-11.6638
-17.2959
-0.259868
7.03918
5.02982
18.4477
-21.5516
-9.8944
13.0606
-2.07636
-2.42225
6.40592
-7.85122
-14.0426
5.13882
-6.17057
-2.97534
-9.10491
12.0469
0.789821
-1.36363
1.48024
-1.58946
-0.811772
0.198141
3.6974
-4.5106e-09
9.8748e-09
4.7338e-09
-9.31269
-1.86614
12.18
-8.87056
21.0851
-14.9552
11.1155
-16.6835
-11.2725
8.10949
-11.0052
6.73494
7.23347
-11.5007
-25.2123
3.0708
-5.89974
23.1048
-7.16735
-11.573
19.2999
-4.51609
1.77108
-35.769
10.2246
-6.59798
4.96258
1.68558
141.058
-73.3853
-123.83
59.6429
-81.33
-48.2381
89.8107
-25.4004
25.5366
28.8344
-29.3695
14.822
-22.5804
-11.6711
18.7978
4.28512
-2.25268
4.76898
-4.22362
-3.10166
9.41588
9.86439
-24.5522
3.16668
34.0797
17.3246
-7.73912
-23.4378
20.3563
15.8443
31.7588
-15.2044
-23.7048
-1.65456
0.875726
-2.94138
3.76488
-1.64859
-2.02615
2.06658
6.16267
-18.4004
-13.36
18.9222
0.0202159
0.0041017
0.00141065
-0.0075069
9.10741
50.3523
-10.0984
-34.0472
-26.4534
30.3705
3.82204
1.6924
-1.90012
8.75227
-8.58904
-12.5523
-3.18436
2.8928
9.07987
-8.95101
-15.4371
24.5474
3.00124
-2.73051
-11.2625
16.9797
12.1585
-46.5346
30.0608
4.12076
-13.2655
17.3062
3.24585
-6.394
-4.72501
-13.3693
27.5848
2.64648
15.1585
-13.2944
1.60675e-05
-8.27039e-06
6.75479e-06
-7.29661e-07
-1.3201e-12
2.21581e-12
-25.7939
11.6901
17.1411
-2.84811
-5.45294
1.10325
10.6355
-6.25461
19.7138
-5.84487
-1.88451
-11.6815
-3.39913
21.63
-18.5062
7.02795
16.3961
29.7861
-26.3994
-7.49167
6.77466
-11.7039
18.0581
-8.24095
-4.46784
2.00048
1.01392
1.43387
-3.68603
9.3947
-8.85008
2.56919
-3.69183
-8.38308
7.89866
9.07604
-1.25276
-12.0033
3.82104
43.2873
-33.1164
35.915
-6.75988e-11
2.72771e-11
2.59697e-10
116.164
-82.1994
122.336
-148.315
16.2715
-1.80639
0.503836
-30.0527
-18.1365
13.4414
-79.514
47.5633
-72.7899
105.139
5.96202
6.52745
-6.29198
-6.80629
-17.4993
1.60827
22.0202
-9.4193
-0.00467539
-0.0116417
0.0285294
13.4279
22.92
-40.1425
16.476
10.4647
6.39016
-11.5501
-4.27945
-17.5844
17.3741
9.38055
-5.745
-7.30385e-10
1.76394e-08
-1.33873e-10
-5.28376e-09
14.6702
5.10757
-8.83703
-21.6506
21.1354
14.2389
-15.4302
12.7471
-3.36967
-1.32907
-15.1078
-4.21008
-3.65852
5.32362
-0.644101
0.734973
14.2901
24.1661
-19.3166
-19.2684
8.37578
2.62293
-4.76757
0.568305
-15.1962
10.2944
21.1092
-28.3753
-2.35337
-4.9126
2.15125
6.41524
2.40219
0.00137832
16.9498
-20.1868
0.234978
-0.160718
-0.150826
0.328578
1.22949e-07
-1.72216e-08
2.07067e-07
-9.08376e-08
0.244378
9.75794
-17.9826
10.0315
-10.3538
4.77405
5.36583
19.6759
-9.04262
17.8917
-25.2922
3.54456
-28.1287
11.428
16.7831
4.47911
-2.40279
-6.86927
6.19478
-4.89304
-10.5586
15.3033
-0.000173071
0.000229293
7.46621e-05
8.23363e-05
23.6528
-25.4324
-2.34563
1.88586
-13.2954
-0.594968
14.4274
30.863
-2.54852
-2.44248
-28.8862
5.04824
-3.6305
5.38157
42.2968
-13.6999
-7.37376
-0.0365705
-0.0284491
0.822179
-0.777207
-4.99151
0.664292
-14.4347
14.3815
13.8975
-11.7967
-12.0774
-0.748473
-4.43785
-9.7025
15.8856
1.71386
-1.93529
-46.0422
34.0174
5.8631
-8.23958
27.5585
19.6176
-39.5756
-75.9705
-17.1808
68.6837
22.5
-2.97075
2.01838
-20.4776
21.6825
0.247019
0.0310057
-0.115871
-0.0284257
26.2275
-16.5649
30.9437
-1.20746
-2.23271
4.83358
12.8609
-25.4856
-3.30733
15.907
5.87921e-11
4.97193e-11
-5.33513e-12
2.16021e-11
28.5521
7.54608
-24.477
-10.5112
-0.871155
-0.0579593
1.2648
0.703547
184.376
-293.155
-92.3462
76.6565
1.13477e-05
-8.29911e-06
-1.02391e-06
1.24701
0.624723
-1.17364
-7.54923
3.21368
7.17978
-2.72651
25.8133
-18.8813
12.0649
-0.477963
6.44883
3.13747
21.5288
6.4962
-15.2144
-9.01884
12.0146
-9.38005
-8.38526
1.5418
-1.62326e-07
1.30414e-06
-4.53977e-07
1.93544e-07
12.6732
-74.8966
17.3194
9.09116
-0.204806
-24.7646
-12.2961
-25.1169
6.37594
22.3941
-11.5905
35.2785
-18.8673
-3.3493
1.67022
3.01
-3.28138
0.141291
2.94287e-11
-4.76074e-11
2.75235e-11
-3.45539e-11
6.79065e-05
-1.47535e-05
4.34962e-06
-0.0432235
0.0201837
-0.0192244
0.0970429
1.94497
-6.74167
-14.8485
19.9099
19.988
-2.09445
-17.0847
-16.0855
54.4466
-30.8359
-11.909
4.19531e-09
4.45008e-08
-4.74726e-09
-1.67134e-08
-8.72016e-05
-9.23357e-05
0.000431205
18.5423
-8.00055
-9.76249
1.26451
0.0277683
-0.00734387
0.0268089
-0.0163358
-51.4009
19.3504
25.0575
1.50265
10.3458
-14.5008
-19.6233
-1.44816
-1.39508
-2.40656
5.2383
9.46009
12.6733
-11.877
-0.545707
13.6815
4.08103
-8.46238
-3.15502
-3.21932
188.086
5.19969
26.9973
-214.365
46.2803
-30.4801
-25.5828
1.52117e-09
-7.38567e-10
7.26491e-10
-3.3734e-10
-1.0543e-07
-1.47425e-07
2.32359e-08
6.46874e-07
-22.422
-7.70954
-2.86735
11.4982
-0.0184742
-0.125137
-0.0633795
0.454333
-13.8699
-17.1137
7.15619
27.2864
-0.0130167
-0.185922
0.53508
-0.103971
23.9374
-14.6955
4.81621
4.90294
-1.91478e-09
-1.969e-09
9.14205e-09
0.944492
0.122486
-1.34228
1.25892
7.84503e-11
8.22462e-11
-1.57599e-10
9.2033e-11
-7.8325
-4.83885
7.56445
25.4038
0.409798
-8.89488
-10.6519
0.029206
0.0139111
-0.0217698
1.03605e-08
5.29014e-09
-1.04976e-08
-3.08688e-10
3.96061e-09
3.50144e-08
8.85833
-12.2062
-18.1987
17.1073
5.95663
2.94522
-23.418
5.38088
44.8677
-35.0562
4.07237
26.0446
-15.7676
24.3115
-14.128
6.25375
-0.168011
-0.663534
0.696019
0.6405
-4.29949e-11
2.42281e-10
-8.12321e-11
-0.00665865
-0.00816402
-0.0123395
0.0433594
3.19742
-6.84063
-2.65764
11.0505
-2.93465e-08
-7.72357e-09
9.30594e-08
3.21175e-10
1.28758e-10
-9.86634e-11
1.01862e-09
-1.03133e-09
-28.3382
-8.39206
-10.0018
39.5255
12.259
-11.4195
8.16232
-8.86403
15.896
14.7556
-47.4994
3.73847e-11
-1.69224e-12
17.4392
-32.1229
7.29058
-4.38021
6.61019
-10.0087
3.22799
-10.3548
-3.09994
7.65613
22.8524
-22.7355
-21.2955
29.4531
1.85212
-21.7977
-3.37609
4.93278
5.6595
8.18208
-8.51246e-09
2.03814e-08
1.76083e-08
-3.96294e-09
-0.13428
0.154222
-0.0923396
0.196925
-3.72465
2.51259
-9.3294
27.186
71.7094
-37.5622
-65.2558
3.60283
-3.7489
37.1804
-36.3101
-1.81442e-11
-2.96125e-11
-0.163004
0.471499
-0.106459
-0.175606
-0.611117
0.592552
0.800308
-10.5012
-0.959728
-12.7116
22.6164
-8.57371e-08
-1.19263e-07
2.46754e-07
2.07067e-07
2.13665
1.67601
-2.15675
0.419459
19.5214
-36.7244
-16.1639
-9.94708
-4.01766
19.0116
-16.7396
-31.9618
10.2893
0.114703
0.669972
0.888043
-0.745479
4.62368
9.1244
-17.8794
-22.0228
7.27333
-7.44858
6.46949e-05
-3.05895e-05
-1.71677e-05
3.91818e-05
-15.2742
10.5558
0.0856642
4.04613
-0.034336
-0.0492909
0.0849173
0.0725411
-0.74167
0.12133
-22.3013
31.2862
2.20563
12.1623
-14.3629
-8.69142
10.0504
5.76231
11.1361
-5.25673
-8.81596
9.7929
56.8083
3.23549
-0.000975545
0.00502983
0.000138079
-0.0016389
6.34049
-2.97861
1.71306
-2.5885
-37.1135
-0.211651
24.2637
19.9059
27.6378
2.77198
-11.1939
-13.9452
-19.0461
12.7401
-0.0766628
20.7211
35.0673
-36.5207
-10.6496
1.71927
8.32597
-14.6109
10.5714
-1.88863
1.33169
-24.5941
4.33203
3.63572
-2.56116
-3.95685
-46.5709
47.4153
11.592
0.000468996
-1.22291e-05
-4.79366e-05
-0.000141825
-0.651998
-17.0422
7.92274
9.81014
-13.59
16.1113
8.7215
3.31947
-10.2669
-6.86362
0.00234881
9.01693
-1.84579
2.95348
-1.46672
-1.47397
-1.82771e-08
-3.83812e-08
6.89085e-08
3.9569e-08
13.0472
0.413913
-22.4154
6.36489
-20.245
21.0783
-21.2473
19.5357
1.76388
-3.13161
-5.54306
6.96407
7.47905
43.2274
-15.0841
-25.6926
24.9742
-16.7579
10.6059
-5.0822
-28.0139
33.9627
-0.50558
15.5987
29.1994
0.167427
5.68595
-4.43439
-8.00833
-3.19217
7.99907
2.67875
9.55197
-11.9628
3.59934
5.66087
-3.58164e-10
1.25281e-08
-1.72417e-09
-9.28487e-10
-49.4765
-12.1319
6.74662
16.7789
-11.4221
-13.1603
11.0722
-7.359
23.6399
-34.0093
28.9608
12.7962
-15.2235
37.428
-33.0033
26.118
-13.942
2.07638
15.8591
-13.794
-4.99529
92.4499
600.741
116.798
-917.455
-13.9506
21.0219
-12.6298
4.30891
-3.10528
8.32548
-14.3178
1.10694
8.21415
1.12669
-12.3515
-19.662
5.75941
22.5636
58.5802
-36.2984
2.96556
10.4808
-8.01749
-7.53879
1.01403
1.94049
-3.35482
1.1427
0.891923
-1.53826
0.804106
14.7942
17.9356
26.7252
-53.7774
-1.69285e-07
7.61496e-07
-2.22377e-07
1.20674e-07
9.36015
-20.1461
15.2518
4.65211
-2.91578e-09
2.55226e-09
1.57048e-08
1.24324e-09
1.75064
-1.80888
-6.55301
10.0087
-12.4191
14.1224
-9.24868
-0.320463
0.732952
1.27397
-0.824966
-13.4116
-7.80321
23.3686
-12.1119
-11.2688
4.57574
16.83
124.019
-98.8731
37.5366
65.3338
-92.3967
1.38966
4.77351
9.41616
5.90938
-14.122
-18.96
-1.52743
0.500388
21.1456
-43.9336
48.7058
-68.9445
69.172
-3.93456
2.18242
-36.2461
24.4632
2.44161e-06
4.82505e-06
-2.89798e-06
-20.9124
9.70362
-21.9638
28.5606
21.3071
-15.3615
14.1927
-14.346
-1.1951e-09
-2.04585e-09
1.03166e-08
-6.98584e-10
0.00447098
-0.00210347
0.00104546
-0.000388933
-0.0864228
-0.0989393
-4.46049
6.65778
-50.9549
-9.49592
10.1717
49.963
6.13721e-05
2.09641e-05
-1.39463e-05
13.2191
-3.87705
-2.08145
-12.669
7.51931
-34.6329
36.2928
-11.3081
-9.38831
-6.2514
27.1043
-4.8674e-06
1.27151e-05
3.43681e-06
3.38546
3.94388
-5.99766
-3.66196
-36.6072
1.56283
37.4844
10.0322
-8.30592e-05
-8.08826e-06
0.000254625
-5.68545e-06
-12.3133
-19.0211
8.22977
21.6646
-7.67931
6.45717
0.0237341
-4.55641e-11
2.55431e-11
7.98909e-11
1.36595e-07
-1.7677e-08
1.18357e-07
-2.47204
-0.282173
1.22447
3.20012
0.499903
1.77164
-0.19166
-0.811
-0.0516778
-0.00880482
0.150928
-0.00360618
16.3102
28.9989
5.69877
-38.7666
-3.95856
-8.68581
-0.87102
11.5367
-2.12775e-05
-1.32664e-05
-15.2135
-3.16098
11.7742
19.709
18.3829
-3.91343
-37.2309
-7.46823e-05
3.00589e-05
-6.15464e-05
0.000356366
-6.21446e-05
3.52801e-05
4.2671e-06
-5.78342e-06
-3.06223e-06
1.52586e-05
-7.0516e-11
1.24864e-12
-6.90543e-12
8.12456e-11
17.2061
-5.55927
-3.60176
-1.76389
1.40931e-05
-2.75422e-09
3.89874e-09
4.6458e-09
0.786497
1.08036
-1.04843
-0.0395287
-3.32932e-05
0.000506959
-1.74548e-05
-0.000190259
-7.42066e-10
4.2459e-09
-4.38063e-10
2.69543e-10
-0.000230309
-3.27362e-05
0.000486107
-1.57462e-05
1.6963e-05
-2.11147e-05
5.98303e-05
6.23275
3.16542
-4.3271
-1.34098
54.4989
-103.165
-41.2253
94.5464
2.24736
-2.87211
-12.6993
15.6007
0.00020321
1.45352e-05
-0.00011789
9.30549e-05
2.38391e-06
-31.5031
-10.7745
36.1345
9.10685
-6.34748e-09
-1.60201e-06
6.52704e-06
-6.2564e-07
-13.6264
2.25025
-0.759946
0.0850936
2.07828
12.0142
-46.795
23.4612
1.82269e-07
-3.5676e-08
-1.20666e-07
-18.6391
-32.1947
53.9043
5.53749
17.0853
-0.159931
-5.85114
-2.89166e-05
3.36702e-05
-3.4432e-05
9.47029e-05
10.0458
-11.7886
-0.860606
2.90588e-07
3.61682e-07
-6.289
21.2255
-2.57376
-13.692
-21.25
3.72515
2.96857
8.46012
8.34337
3.74214
7.3826
-14.2127
12.0771
-0.832665
-1.96701
-9.12856
-30.7995
4.31045
13.7312
12.8525
3.86958e-06
4.42024e-06
-3.41929e-06
-3.96709
-12.0922
11.1931
6.16538
-2.21178e-06
-2.61546e-06
1.19792e-05
2.37956e-05
-2.86309e-06
-5.87765e-06
3.22309e-06
1.46872
18.5429
3.39245
-26.2657
2.71836
9.21493
-10.292
-1.52255
-7.71251
5.69248
-7.26336
10.0658
6.44024
-19.2852
0.000153697
-0.000703074
0.00137306
-10.0016
-13.1899
11.5584
0.168848
-11.2891
0.853989
15.1705
-14.964
-7.09465
6.54775e-11
9.34514e-12
-6.35461e-11
-8.8449e-11
-10.4295
-12.6294
13.7744
23.0262
-22.5294
-15.6838
-15.4843
11.8467
2.20685
1.79014
-34.3983
-33.78
4.72055
62.6829
-0.240604
-67.1914
14.7769
0.00644382
-16.161
4.50014
-3.81291
-1.60363
1.02656
1.41678
-5.81442
4.38812
0.094163
-12.2599
17.4875
-16.384
3.48504
0.886263
-3.75205
-17.6954
-0.737292
12.0964
8.19383
-16.5239
-23.9484
11.5876
-22.0119
37.2032
-18.6033
-0.516397
-0.638386
1.66058
-54.2668
-16.059
68.9043
0.123345
0.0393287
-0.0877061
-17.8382
8.41403
13.3746
-4.04105
-15.5328
-15.4078
7.35628
-13.5461
-14.731
12.1291
22.9828
-0.000438298
0.00145633
-0.000903399
0.00194362
14.1868
63.5436
-62.3543
1.013
-2.79855
-0.473625
3.88391
62.9934
-53.5533
-195.174
61.1088
152.666
-19.2412
22.4077
-0.457009
4.69805
-18.8932
1.67028
2.15766
-0.511733
-3.29977
-23.1685
4.05933
3.08907
12.3629
-4.22702
-1.45354
7.30212
-1.46224
-10.6171
6.34083
-4.42128
9.24308
0.000178728
0.000246949
-0.000142058
-5.7494e-05
-16.6432
-8.14271
1.15785
28.3893
-6.38151
-9.96663
10.1693
-2.84373
7.24168
-0.243286
-4.11967
-0.000853493
-0.000392229
0.00215623
0.0001225
0.0348244
-0.0210745
-0.0133208
0.0260336
17.9733
-20.8324
-0.201915
-0.574579
14.0573
-119.755
108.043
-8.76252
6.51451
-0.58882
7.62272
2.97374
-0.932417
-4.39586
2.98786
5.03345
-0.155135
11.3273
-20.1049
8.02847
-7.71529
19.5865
-9.14534
53.6737
115.448
-86.3209
-65.9953
-8.84214
216.395
-97.3854
-104.635
0.150055
-0.118239
0.0972764
0.0132333
9.27734e-12
1.84634e-11
3.21797e-11
2.54989e-11
5.33356
-4.2668
-10.6946
9.50668
-8.78331
-1.39504
11.963
111.219
-57.7522
-2.7495e-07
1.20061e-06
-2.1514e-07
-27.4466
-4.01073
23.7971
28.6629
-13.1473
-15.7205
-1.62194
-2.72985e-05
8.66576e-05
-2.05868e-05
8.35802e-06
-7.72324
-20.4277
-22.6593
49.5966
-8.97424
11.3081
3.64554
9.69347
6.7599
-5.6313
-26.7367
-65.4273
90.8744
1.29945e-07
-8.6969e-08
-0.145715
11.2812
-5.94757
-31.5907
12.6927
4.55139
15.4307
13.5701
10.6848
-17.996
27.9123
8.08325
-14.2259
-12.3316
-1.91694
-32.8344
120.937
-87.5757
-6.56252e-06
2.58358e-06
2.5015e-05
-7.66357e-06
-0.0843226
-0.170763
-0.0595808
0.54961
-2.78309e-11
-6.27573e-12
1.91448e-12
2.66394e-11
4.69318
5.26528
-9.76372
-0.805486
21.8793
-2.70545
-30.8016
1.24683
1.81352e-06
7.01805e-11
1.83755e-11
1.80543e-10
-1.61422e-10
-15.3591
14.9425
0.413079
-2.03017
-0.542831
1.10077
3.11208
-0.416533
-14.6268
12.7125
0.000332602
-7.75529e-05
-9.20953e-05
-29.9998
31.6606
-10.7492
7.30542
-2.70793e-07
3.70556e-09
13.506
-17.8533
2.72351
63.5446
-30.5481
-42.5948
-20.0051
5.31506
23.1067
0.907505
-25.2775
35.3586
-21.7266
20.5571
-75.2544
51.88
-25.064
5.30152
1.06475e-11
8.782e-11
2.07893e-11
-7.99187
3.34757
24.2821
-15.7413
-80.6686
89.9933
28.2858
-42.7217
-55.9182
-50.3667
58.505
11.719
10.6416
7.65382
-1.6072
-9.75103
84.442
-83.3091
95.5379
-48.9735
-1.64628
-4.47668
9.10984
-227.352
212.497
6.84812
24.0002
17.8731
-10.7058
-0.305546
-8.71881
229.56
-213.661
-135.545
130.043
7.74676e-07
-2.4393e-05
2.0512e-05
8.39796e-05
24.5295
14.5246
-27.9982
1.47888e-10
-1.16033e-10
3.01722e-11
1.29662e-11
-0.000144828
-5.55008e-05
1.63621e-05
0.000437781
-0.000198138
0.000556976
0.000102955
2.02606e-05
146.435
-119.301
-11.7114
-16.652
2.732e-07
3.85822e-06
-12.4869
19.888
-0.32724
-0.00908714
-0.0113323
0.115332
-0.0245757
13.6098
5.15181
9.53233
-19.4602
8.89801e-06
3.29312e-05
-1.11306e-05
-8.9505e-06
-40.618
-58.6462
30.2108
21.1561
2.55295
-46.2095
13.2336
29.2579
-29.3086
-79.7352
94.6342
20.3689
0.130222
2.02841
-1.19912
12.9023
-0.819393
3.95901
0.0937569
0.00540439
-0.0402485
-0.00749109
50.6184
-43.5132
-216.862
238.926
-81.8995
92.572
-33.0888
-3.89929
4.70716
-0.735076
-10.6529
-10.1313
13.9455
1.40066
-9.44964
-70.6308
-4.63827
11.5808
-19.6729
11.0511
0.0133809
0.0424455
-0.0290002
0.00767155
-5.23472
3.24965
-1.53641
5.80136
-57.2705
-8.90777
43.6262
22.2232
3.34811e-05
-1.90996e-05
1.49595e-05
10.4042
-7.91583
11.3844
-6.76667
0.893386
6.35193
4.42366
4.40374
3.73355
-137.257
10.8141
124.635
0.414912
0.0969691
-0.248152
0.00844864
-0.00782203
0.0147151
-0.00170659
0.00129124
-0.00657418
-0.00594201
0.0298329
-0.00646327
-13.4934
6.75817
-11.1903
-9.74808
-26.817
37.1188
-0.0185764
0.0861525
-0.0223162
0.0054762
-5.85001e-09
-3.85724e-09
2.37166e-08
3.28142e-09
-68.8094
-185.058
132.685
121.728
142.797
-39.6315
-53.8394
-54.6065
12.5312
-9.45526
-12.2008
-1.35989
-8.14705
40.73
-10.6752
-8.80588
20.0935
-5.87419
-25.538
6.9506
1.88564
1.40997
-2.37231
-27.8757
14.9296
14.0518
0.126205
-0.436706
1.37654
-0.376091
2.03676e-09
-3.33994e-10
-4.01739e-10
-6.14696
-5.53406
9.00337
3.73293
0.00509576
-0.00565376
-0.0363767
0.0853248
17.1919
-24.3334
10.3566
7.41621
-2.40706
-10.8107
27.1967
-13.5147
-41.5667
11.4064
44.8139
-14.1729
3.65052e-11
-2.44341e-12
5.51863e-13
-1.1279e-12
-12.2688
35.6782
-14.9146
7.14614
-5.22752
-10.3447
8.77532
-6.0641
31.3029
1.12249
18.0236
10.1091
-10.3621
-18.3006
11.3315
7.37111
-0.621823
-2.76483e-05
9.53053e-05
-5.60047e-06
16.089
-23.767
7.87708
-8.11027
-26.4851
18.4155
6.33664
-16.291
0.403316
-19.4728
31.1872
-12.4782
11.5378
11.9048
1.39886
-20.6458
12.9425
-7.87409
6.4329
-7.21413
-6.54444
15.2504
-139.051
37.2856
44.7754
56.5922
26.8989
-34.9248
-1.24072
8.93087
-2.08526
1.40467
5.71245
-2.86573
-32.3478
88.5817
-56.8731
27.7528
-26.3378
-36.6317
35.4287
2.39666
-0.642008
-1.05064
-0.683961
1.74506
-6.4337
-1.15823
5.85155
-1.6335e-09
4.88015e-09
8.28539e-10
-1.10946e-09
-17.1195
-24.4008
0.669319
35.7041
-0.000399675
0.00125881
-0.000574113
0.000757347
15.1946
1.05327
0.938397
-12.8548
13.5648
-41.145
48.3652
-20.65
-2.94813
-2.20388
5.17309
-31.3332
-12.9074
-34.1921
38.2458
-81.0308
-19.2004
63.0538
-20.9389
9.18284
-0.703765
7.87168
-2.42839
-4.28521
-0.982895
7.75871
7.03918
-65.3218
27.8552
-25.5335
19.8719
-27.2755
32.285
56.9836
-0.318806
-88.2823
31.5929
9.16942
-13.3786
15.5218
-12.4598
-21.7081
4.14123
-11.1805
0.226434
-27.9158
35.8016
-4.0481
1.12515
-3.67717e-11
2.22428e-12
-5.53763
-0.40625
-14.222
-12.1468
23.8333
-36.6453
20.7069
-31.8353
31.5187
11.9527
-7.57856
-0.586126
0.127678
0.709677
-0.123988
10.2468
17.2827
0.000281585
-0.000144827
-3.29981e-05
0.000148363
0.000751981
-0.00010925
-7.73497e-05
-8.66037e-05
-3.5857
-3.74541
-4.2405
-7.00944e-06
-1.41891e-06
1.87566e-05
5.07915
26.1199
-12.5185
-8.39452
3.73301e-06
-8.89463e-07
-9.40833e-06
-11.4102
14.4101
5.75591
15.3216
6.71006
7.89605
-31.1752
-17.5371
-15.7327
-1.93311
21.7333
-20.5679
-3.21498
16.9541
9.90086
14.8843
-10.6765
1.40602
27.9838
-5.2488
-0.778009
-12.0884
-10.9775
2.70662
11.0691
0.770508
-1.69728
0.214521
-4.58471
9.73867
12.1904
2.32862
6.22203
-16.7936
-8.0535
12.1401
-10.3611
-0.148324
0.000653817
0.000428283
-0.000247528
-50.6968
2.03059
38.4853
8.16586
-27.2224
-29.2335
-10.1927
10.1839
-13.5831
10.0775
19.3886
15.3102
-6.56865
-17.7274
-0.357561
1.51902
-5.5152
12.8771
33.2477
-48.5769
-15.7382
32.5372
-7.38921e-12
7.55643e-12
9.34023e-12
-17.8358
19.3162
12.7717
15.9031
-6.31543
-15.9246
2.06508e-05
4.33998e-05
-1.16095e-05
-2.67005e-05
-0.0883005
3.44805
-2.59038
1.19154
1.38032
15.1201
-13.5564
-3.19281
12.1529
27.99
-12.3864
-0.1107
-1.94032
2.97659
3.49704
4.34443
-7.80387
0.959201
8.15158
7.65648
-0.311722
-17.9584
1.84285
122.04
-6.8727
17.6815
-124.398
-2.58417e-10
8.8808e-10
6.38705e-11
-2.66417e-10
3.52991
-1.21459
-2.16322
16.776
-13.9216
2.2492
-7.57484
-3.35479e-05
0.000699324
-0.000193596
-0.000322642
-0.000144833
0.000253705
0.000866461
-7.93194
0.835066
10.454
-3.87062
0.405708
6.25192
-11.2312
-8.21082
13.3443
-3.48397
-3.44259
-1.71377
-7.64048
-5.18711e-06
-5.26699e-06
3.32836e-05
7.31753e-07
-10.7892
13.7932
22.2625
-7.46231
3.27699
-4.02703
13.1929
-9.09222
-0.564163
1.04642
14.5021
14.726
-22.2065
4.77866
-14.1262
22.796
7.34218
-21.4555
-4.4261
-0.514204
-14.9634
18.1046
-2.55227
3.69918
2.77528e-05
6.89566e-06
-8.5894e-06
-14.9957
6.22661
15.5863
-6.77649
4.63294
-8.26548
12.2846
-8.60512
5.56407
11.3167
1.26184
-5.61386
-14.2925
5.50413e-05
1.43643e-05
-2.47173
15.3013
-20.1641
5.23177
0.000958153
-0.000222183
0.000315302
-0.000199562
-9.5362
5.14866
11.7621
-16.1531
-13.8666
15.226
-9.06207
20.2246
22.121
22.5613
-30.7537
-5.19998
-13.745
-3.30704
-5.09282
12.6766
48.7112
-0.132664
-50.1167
2.74293
-2.04202
0.227595
0.0433359
1.51912
3.12227
-12.2177
7.50212
-2.15979e-10
1.69762e-09
-3.15552e-10
18.3933
-11.3312
18.2491
18.3218
-6.52837
-9.38016
-2.48368
-14.3552
1.91815
11.2176
1.10707
2.45043
-0.825431
0.242284
-0.525249
-5.79422
14.9603
-10.5376
24.2826
-8.45482
-25.5214
11.011
11.427
-22.6544
-16.434
25.6437
-4.2607
1.70996
2.22551
1.58533
1.69008
3.74985
1.61272
-0.556351
0.064812
-0.0972134
1.02892
28.6506
10.4668
-5.46772
-22.0555
5.95161
3.01257
-1.05465
-3.72865
-14.8097
-3.65909
15.3326
2.8627
-3.93749
6.93135
-9.29232
4.8083
20.0571
-15.0957
0.262275
-25.1419
21.3433
8.56576
-7.10492
-13.6018
-92.7634
-14.7014
30.4874
-13.1067
9.54219
6.38073
-7.63865
28.7625
-108.735
-6.21986
84.2565
1.85089e-11
-4.3671e-11
1.73987e-11
14.9271
-8.10083
4.04549
31.6082
-16.3166
-11.0234
-11.3247
34.1703
-48.301
26.6597
10.019
27.8885
-27.1492
-8.41994
-1.51421
-1.78518
-0.0700398
5.48988
-5.75704
10.1652
-6.32472
9.04299
9.39153
-1.0932
-6.47676
-8.28227
5.25666
8.98208
-11.712
11.6741
-38.201
45.856
-21.0611
-11.6489
0.36639
18.8526
-2.86783
-1.6115
4.95831
6.24371
-9.23923
-0.228258
14.2676
-32.398
15.4946
18.2174
-8.05884
45.0937
-37.2843
9.85011
15.7613
-26.6572
-19.1324
24.9809
-10.5533
-6.09284
-12.5222
-37.6819
5.23115
-6.7612
-7.22389
3.20589
33.3996
-26.6713
-29.649
22.9169
-3.60035
-17.9411
8.5735
6.90984
37.2979
-10.4614
11.5848
-20.5552
-0.0716652
3.0223
-1.92513
26.9676
4.24731
-36.8715
5.96425
5.81549
-6.7049
1.75098
-0.834427
41.7319
-36.8406
-12.5597
10.016
-11.7337
15.3153
-21.4285
22.5135
-7.56048
-1.81763
2.75827
7.51866e-10
1.15256e-09
-3.22541e-10
-3.18061e-10
-20.0515
-9.86928
35.3042
-0.625439
4.14518
-26.1213
30.4933
15.0152
1.16852e-11
-11.3269
12.2244
-15.693
-3.65645
4.48094
-13.9392
-10.3595
33.0345
-18.3573
0.0288314
0.00249575
0.0151609
-0.0157027
94.5025
-172.425
23.0333
0.868902
-3.96539
-2.45975
1.18818
-90.0521
19.7257
100.594
1.87917
26.9099
15.4454
-7.40703
1.74526
-0.704231
-7.65381
3.24625
-13.291
22.2758
-10.8276
2.07556
4.05102
-1.28022
-17.0587
14.7018
-5.46379
3.27186
43.165
-29.2056
-33.1862
-3.11862
8.1005
23.7582
-0.00154463
-0.00152498
0.00483049
1.57981e-05
-4.63115
5.45091
-34.4042
26.2416
56.9318
-41.3474
-20.8008
3.43625e-08
-1.02295e-08
-1.75421e-08
2.29681e-08
-4.28076
-5.05589
2.68984
15.452
-5.90601e-10
-6.32769e-10
6.55777e-11
-6.92326e-12
3.99076e-11
-8.88357
14.1156
-0.0304205
7.11322
-45.2182
-4.11551
42.5746
110.898
100.848
-119.545
-96.6599
-10.1345
10.553
0.927929
-2.6259
21.0515
1.17941
1.69305
-9.04574
0.00987244
0.00995709
-0.00979834
1.27079
10.308
-3.97609
-7.56894
6.99308
2.92698
-5.004
-15.3264
5.57967
20.5131
-17.6296
-9.41697
-3.33872
3.25718
9.42501
-4.37581
4.51201
-7.88363
5.07038
-5.36634
1.68482
-7.2505
-1.13801
1.02322
11.7389
1.63255
-0.0186861
0.0120471
-0.0125157
0.0531968
11.7566
-1.37748
-5.09624
-4.55896
0.605518
-10.46
6.82158
7.8176
-5.85983
4.16026
0.201507
88.5534
-79.3137
-4.1343
-15.0563
8.50096
7.03263
9.46437e-05
-1.12756e-05
-11.9083
14.0901
-16.0032
-7.09693
0.326282
-0.267084
4.13986
-10.0735
-0.535445
-16.9766
55.405
-11.4338
24.01
-4.55479
-11.9879
0.126093
2.82952
8.04423
-0.0300496
0.0290184
-0.0444537
0.0987471
8.7275
-16.7605
-50.6273
51.1396
11.0294
14.3095
61.0117
-44.5697
-16.1125
7.69042
-18.15
4.12956
31.1132
-0.44059
-0.687017
-5.88296
6.10715
5.71714e-09
-1.11698e-10
-1.90308e-09
2.39457
-18.6609
8.76355
7.70611
4.47749
-12.6963
-1.60438
8.97904
7.1178
30.4909
-47.7942
4.07208
-3.86365
-12.7432
-15.6148
-0.0751091
0.102802
0.0048041
0.0513609
8.89026
-5.26556
0.960054
78.9626
-81.1473
-20.0234
8.00638
5.36133
-0.429475
-8.29434
43.6959
-32.3099
-5.94268
46.5213
-63.7215
16.3011
-4.14557e-06
3.39631e-05
7.14422e-06
-9.03391e-06
33.0463
-1.35157
-24.8313
-5.78674
17.4995
20.4545
11.2615
-6.98722
-1.18841
0.00124475
0.00304936
-0.00175706
4.80534e-05
-0.0261805
0.0101479
0.0392109