/*--------------------------------*- C++ -*----------------------------------*\
| =========                 |                                                 |
| \\      /  F ield         | OpenFOAM: The Open Source CFD Toolbox           |
|  \\    /   O peration     | Version:  2312                                  |
|   \\  /    A nd           | Website:  www.openfoam.com                      |
|    \\/     M anipulation  |                                                 |
\*---------------------------------------------------------------------------*/
FoamFile
{
    version     2.0;
    format      ascii;
    arch        "LSB;label=32;scalar=64";
    class       volVectorField;
    location    "0.5";
    object      U;
}
// * * * * * * * * * * * * * * * * * * * * * * * * * * * * * * * * * * * * * //

dimensions      [0 1 -1 0 0 0 0];

internalField   nonuniform List<vector> 
32842
(
(-0.243397 -0.0613849 -0.189405)
(1.47697 -0.209023 -1.14053)
(-0.0127713 -0.0114281 -0.0745239)
(-0.0119495 0.0192304 -0.0821097)
(1.74174e-11 -8.31491e-12 -6.78726e-11)
(0.0221404 -0.0515316 -0.297389)
(-36.8503 5.47788 18.5462)
(9.39731 -8.78348 10.3879)
(-9.49343e-11 3.38769e-11 -1.37841e-10)
(-0.0653127 -0.152888 -0.255979)
(-1.56641 26.6517 -3.99751)
(10.0944 -13.7851 8.891)
(-0.0685512 0.0982092 -0.023126)
(-3.71493e-13 -4.59836e-13 9.68312e-14)
(6.6987e-13 7.01052e-13 -7.22125e-16)
(-0.118245 -0.561389 -0.36628)
(0.0185525 -0.1298 -0.29589)
(0.0629614 -0.087574 -0.293952)
(-0.317529 -0.0721684 -0.238728)
(5.28343e-11 2.41005e-13 -1.71901e-10)
(-1.32395e-12 -1.2215e-12 -4.34963e-13)
(-0.0374047 -0.0396358 -0.298285)
(2.05248e-05 -0.00027996 -0.00172109)
(-1.62977e-12 2.46213e-12 -4.36361e-14)
(0.0896862 -0.116353 -0.224709)
(0.0422225 -0.000200619 -0.0814963)
(0.0544571 -0.0273393 -0.185653)
(4.74502e-13 -2.03057e-12 -6.1688e-13)
(13.2987 -1.15217 -0.732837)
(-0.0490553 0.0748788 0.0790019)
(16.5441 0.943714 -2.68835)
(-2.72436e-11 -1.44028e-10 -1.65042e-10)
(6.8932 -23.7083 -6.1915)
(-0.0737037 0.122219 -0.084723)
(5.83509 -24.9796 -7.45799)
(-2.03494 -3.4781 -3.47304)
(-0.225253 -0.19624 -0.125229)
(-0.0348732 -0.180474 -0.0325175)
(0.055675 0.10275 -0.0254012)
(0.0425149 0.0525183 -0.262205)
(-0.0432268 -0.07053 -0.34077)
(-0.00747706 0.00156331 -0.0342425)
(0.00126362 -0.000702045 -0.00368393)
(6.02772e-06 -2.43614e-06 -1.55209e-05)
(0.0778343 0.446033 0.0910301)
(-0.0647035 0.120634 -0.0259243)
(-19.7834 0.583732 -2.63065)
(-0.0776933 -0.0118832 -0.25711)
(-6.96463e-06 2.02771e-05 -0.000232242)
(-19.6164 -6.2351 -4.44502)
(-2.60449 -13.8996 -9.07686)
(5.13328e-05 0.000757562 -0.00224281)
(0.0387874 0.00211558 -0.0697717)
(12.0632 0.0767346 0.799999)
(0.000689528 -0.000818761 -0.00403567)
(-0.524883 -1.39298 3.17749)
(-0.00964308 0.0253399 -0.176923)
(0.322657 20.4348 -0.914418)
(4.86582e-07 -7.1844e-07 -2.72271e-06)
(-1.45856e-06 3.27227e-07 -4.02181e-06)
(0.951391 -10.9093 -8.47879)
(-0.0578126 0.226525 -0.142151)
(-8.92853e-06 3.41768e-05 -0.000208204)
(1.37263e-10 -2.17741e-09 -6.30309e-09)
(-0.0214981 0.0362402 -0.0410784)
(-22.3032 0.194607 -3.69628)
(-0.00349658 -0.001108 -0.00792986)
(0.0744325 -0.128399 -0.242192)
(-5.46982e-11 -6.49314e-11 -1.45928e-10)
(0.610135 0.736352 0.494843)
(4.95792e-11 7.32903e-10 -2.33254e-09)
(-7.13776 3.34421 0.0927374)
(-1.33429e-05 -1.19497e-05 -3.75168e-05)
(-9.16819e-13 -7.62545e-14 1.2026e-12)
(0.00143018 0.00098648 -0.020327)
(0.0486872 -0.0552978 -0.388079)
(20.6068 3.02339 -0.30377)
(0.00885601 -0.00218889 -0.0246591)
(-0.00363409 -0.048369 -0.205931)
(-1.00384 -17.9193 -0.0555701)
(0.0124117 0.00768682 -0.023892)
(0.00433165 0.00325259 -0.0481382)
(0.00990056 0.000983873 -0.0400968)
(-1.07714e-09 -1.45429e-09 -4.13364e-09)
(0.000160324 -0.000625398 -0.00124428)
(0.00203883 0.00385938 -0.0127545)
(0.00203864 -0.000346106 -0.0164175)
(1.36501 0.741992 1.67555)
(0.904638 -18.5047 0.47764)
(0.174525 0.0765892 -0.474187)
(-0.00932081 -0.084784 -0.0339141)
(-0.0183193 0.0576836 -0.204744)
(-16.2724 2.14289 0.593673)
(-1.02633e-12 -2.23314e-13 -4.2594e-13)
(0.0352652 -0.0339999 -0.150015)
(0.0141463 0.075519 -0.247103)
(0.0534412 -0.108133 -0.0768735)
(-9.35099e-13 6.94836e-13 -2.77059e-12)
(-1.22898e-10 -7.02309e-11 -6.94894e-10)
(1.3038e-10 1.27228e-10 -9.73446e-10)
(-7.30283e-13 -1.06889e-12 1.74552e-13)
(-0.120208 -0.112778 -0.06696)
(-2.12315 0.889598 0.0580419)
(11.8237 1.28897 1.82066)
(0.00906709 -0.162777 -0.10389)
(0.101549 0.076999 0.00142972)
(-5.66889 10.9968 7.05602)
(-1.85295 1.31844 -1.40074)
(0.0301705 -0.0798549 -0.292697)
(-0.464074 1.06294 0.905246)
(0.0381408 0.106335 -0.380117)
(-0.0149598 0.077462 -0.221249)
(-1.55785 -19.6035 -5.01082)
(0.0108266 0.0342684 -0.245338)
(-2.15919 -0.24747 0.189097)
(4.81852e-08 -1.2775e-07 -3.29454e-07)
(-1.30772e-12 1.55014e-12 8.17669e-13)
(4.97452 -2.74352 -9.89003)
(-1.5429 -0.150043 -0.385737)
(0.230532 0.0426584 -0.352471)
(0.0110219 0.0562651 -0.326422)
(-0.0527669 0.0279814 -0.323044)
(1.76295 21.7075 -1.88056)
(0.0292711 -0.0146309 -0.0706405)
(-0.286288 -1.08665 1.0973)
(0.0994928 -0.00646409 -0.270257)
(0.00171251 0.105564 -0.116311)
(0.34422 -0.0664988 -0.16104)
(-1.65258 20.425 0.8328)
(0.0201051 -0.0247761 -0.0683286)
(0.00563025 0.00853961 -0.0505656)
(-2.89478 -1.08161 0.650098)
(0.202534 -0.0405675 -0.21138)
(-0.133386 -0.0489461 -0.426486)
(0.053398 -0.0669469 -0.29415)
(-0.360922 0.181978 -0.389381)
(-4.27216 -0.997533 1.64522)
(2.46364 1.04872 2.6684)
(-0.0683377 0.0050255 -0.275294)
(-0.127427 -0.165863 -0.311091)
(0.0109822 -0.0593486 -0.0407597)
(0.0421846 -0.0476454 -0.122434)
(9.89807e-09 -2.23637e-09 -3.32472e-08)
(-2.32335 -4.61725 3.12484)
(0.0992325 0.0150047 -0.215497)
(0.0154585 -0.092594 -0.0772822)
(16.4769 -1.58327 -12.3377)
(0.0922023 -0.0556986 -0.122963)
(1.0327e-12 5.46716e-13 -5.72395e-13)
(0.0156468 0.00501696 -0.240169)
(-0.888704 -0.456447 1.48468)
(-0.6687 0.454409 0.431004)
(0.00825289 -0.162348 -0.5591)
(-0.240229 23.6429 -0.638662)
(-0.426419 0.717163 -0.136338)
(-0.000498124 0.00412159 -0.0119017)
(-0.00643458 0.00209063 -0.0577294)
(-0.0126444 0.0270702 -0.135606)
(-0.140814 0.0479397 -0.231405)
(-0.045304 -0.0214314 -0.333909)
(-0.180658 0.048155 -0.305354)
(-0.0043022 0.00835259 -0.0356646)
(-8.70313e-13 1.54178e-12 -2.06112e-12)
(0.00500923 0.00748026 -0.0232071)
(-0.0238207 0.868825 -0.97757)
(-0.0411479 0.0457086 0.0285338)
(-0.00406774 -0.00752766 -0.0353294)
(-0.051586 -0.143679 -0.0166813)
(-0.0633918 0.0560364 -0.144721)
(17.7419 -3.10782 0.302948)
(0.765614 -0.293378 3.31112)
(0.109261 -0.180848 -0.371451)
(-5.9853 -1.0752 8.61359)
(-2.57542e-06 1.1635e-05 -2.13524e-05)
(-0.00842611 0.00948046 -0.0315456)
(-4.53599 5.49841 9.26803)
(-0.104131 0.0507156 -0.118208)
(-1.05146 -1.19533 0.714882)
(0.00101823 0.000367933 -0.00324233)
(-0.01615 0.0931598 -0.198713)
(0.21183 -0.0649085 -0.0745303)
(0.0157238 0.0385338 -0.13855)
(-0.0881926 0.0206612 -0.222536)
(0.0142643 -0.0499156 -0.303769)
(-1.97767e-11 -4.55367e-12 -2.88227e-11)
(0.0725386 0.0166057 -0.195679)
(-0.139589 -0.0735567 -0.220482)
(-0.0413343 -0.0105224 -0.283829)
(-0.0639308 0.0465123 -0.31357)
(0.0637518 0.0706606 -0.111158)
(0.0375216 0.114209 -0.08849)
(1.51613 0.769399 0.342889)
(-0.00496368 -0.00193018 -0.0267355)
(0.00217421 0.00282099 -0.0297098)
(7.11938e-11 1.04259e-10 -1.34198e-10)
(-0.0439241 -0.169243 -0.117335)
(-0.0572956 -0.0829888 -0.399714)
(-0.0328119 -0.195105 -0.187631)
(0.085103 0.0958432 -0.161876)
(-0.0365855 -0.13565 -0.461862)
(0.129223 0.0698739 -0.282295)
(-0.0816742 -0.19734 -0.186237)
(-1.03545 0.0484391 1.63569)
(-16.9255 -1.22575 -1.22255)
(-0.791695 24.5155 -2.61062)
(-0.853613 -0.434281 -0.689999)
(0.0124941 -0.029603 -0.299535)
(-0.00859694 0.00905561 -0.0713366)
(0.0389582 0.0824538 -0.142418)
(0.0303133 0.0783413 -0.307866)
(-0.0639275 -0.249649 -0.304252)
(-0.517999 -0.65446 0.0966183)
(0.586981 5.4695 9.24772)
(0.878932 4.83752 8.39259)
(-0.000884813 0.0981637 -0.292638)
(3.77108e-05 -2.38987e-05 -0.00010838)
(-0.00017785 0.153809 -0.338893)
(0.099263 -0.00817696 -0.265623)
(-0.0560759 -0.148893 -0.116067)
(0.0966664 -0.609372 -0.183372)
(-1.02278 -1.43674 -3.39797)
(-0.0360652 0.0373476 -0.161956)
(0.136477 0.0157649 -0.439)
(-0.129617 -0.127794 -0.175504)
(-0.0337543 0.0527409 -0.224876)
(-0.10882 -0.296606 -0.364358)
(5.8076e-08 -1.67455e-08 -1.03237e-07)
(2.64222e-12 1.2998e-12 8.83356e-13)
(0.0680849 -0.151828 -0.280436)
(0.510731 -21.3237 0.0826631)
(-0.0166035 0.0370491 -0.304205)
(-0.00825695 -0.0288964 -0.249149)
(0.215586 -0.130417 -0.151345)
(-0.00270084 -0.0268119 -0.247001)
(-3.36137 -13.5502 9.60622)
(0.0480977 -0.0375498 -0.242474)
(0.0436124 0.00749305 -0.218956)
(0.472534 2.1137 2.38152)
(0.000537538 0.0472909 -0.404081)
(1.97758e-12 6.99051e-13 -3.16641e-12)
(2.90801 22.136 -1.14)
(-0.0841236 -0.0196262 -0.227624)
(-0.079307 -0.0245677 -0.181296)
(22.3628 0.249581 0.513617)
(-0.0188867 0.0666874 -0.153559)
(0.212339 0.199952 0.127797)
(7.86836e-05 4.59644e-05 -0.000221988)
(-0.0242175 0.0880444 -0.340583)
(-0.0615803 0.140194 -0.239554)
(0.0754275 -0.018846 -0.215607)
(-1.78552e-11 -1.50361e-11 -1.20263e-10)
(0.0317123 0.00376272 -0.276308)
(0.0539263 0.794575 -0.539208)
(0.0355144 -0.00922785 -0.216691)
(-0.00259762 -0.00623353 0.0762994)
(-0.012394 0.0508774 -0.250563)
(-0.0858093 0.0166494 -0.20028)
(0.943746 3.35108 7.94108)
(-0.0265313 0.127135 -0.299545)
(0.109204 -0.00681896 0.0954351)
(0.126378 0.0720333 -0.246769)
(0.000571407 0.00055271 -0.00331188)
(-3.9324e-10 -1.15819e-09 -1.94559e-09)
(0.0550031 0.0182529 -0.274733)
(0.0413829 0.0620752 -0.321022)
(0.00381463 0.0719174 -0.287528)
(0.0833859 0.0612395 -0.292186)
(0.0640619 0.0960484 -0.0400249)
(0.0964393 -0.153837 0.0113269)
(-7.44941e-07 5.12923e-07 -2.48523e-06)
(0.00135614 0.0519696 -0.329592)
(-0.0109335 -0.0369361 -0.314768)
(-0.00856743 0.065654 -0.275466)
(0.0912263 -0.0359085 -0.150884)
(-0.0987612 -0.0116385 -0.223871)
(0.56691 -1.29715 2.53362)
(-0.166222 -0.0929882 -0.0218905)
(-0.17964 0.00623511 -0.201181)
(-0.0414221 -0.0727271 -0.210709)
(0.0570978 0.011032 -0.311286)
(-0.0529422 0.125474 -0.265737)
(8.21008 12.4317 -7.36778)
(18.3805 0.208548 -0.840791)
(-0.0012554 -0.00101493 -0.00246403)
(-0.248825 -0.154827 -0.292364)
(-0.486066 -1.41125 1.28791)
(4.77118 10.7744 -2.81565)
(1.47931e-14 1.08845e-12 -3.937e-13)
(0.0733273 0.115663 -0.346007)
(-0.00312555 0.00512256 -0.00819383)
(32.8766 24.9175 4.54153)
(8.21405e-08 3.85527e-08 -9.99995e-08)
(0.00937205 0.00696334 -0.0268237)
(-0.308181 16.3746 3.48958)
(3.41214 20.8136 -1.17719)
(-0.537542 -1.2898 1.35013)
(0.00853658 -0.0106186 -0.0391254)
(-0.0388328 0.0153501 -0.362194)
(-0.0614593 0.136318 -0.115995)
(3.0533e-09 2.25737e-09 -1.03426e-08)
(-56.9484 52.1446 -19.9388)
(0.0325943 0.105437 -0.222302)
(0.0885539 0.0254504 -0.384141)
(-0.00644974 0.0632583 -0.492821)
(0.00279435 -0.00406453 -0.0661599)
(1.26574e-13 8.06812e-13 -4.62859e-13)
(1.00644e-07 -5.16457e-08 -2.66177e-07)
(-0.000147883 0.000170614 -0.000597071)
(-0.111763 -0.0676668 -0.226506)
(0.0994346 -0.204872 -0.317445)
(0.0237328 0.0551912 -0.528107)
(-1.40194e-10 -1.35241e-10 -3.49712e-10)
(-1.34974e-06 -1.28917e-06 -2.58752e-06)
(-0.0528278 -0.074026 -0.301921)
(-3.60709e-05 -2.77961e-05 -0.000190762)
(0.0379299 -0.0897172 -0.429559)
(-0.0576782 -0.0971162 -0.257224)
(-8.46211 -0.77723 17.7215)
(0.0401759 0.0453326 -0.146674)
(-0.0895577 0.146679 -0.0347806)
(-0.0728006 -0.0410869 -0.152994)
(2.93774 -19.5448 1.29911)
(-0.0864791 -0.00642085 -0.534081)
(8.39064e-12 -2.695e-12 -1.05206e-11)
(-1.55471e-09 6.85934e-10 -3.15401e-09)
(-0.0362447 0.0722581 -0.543477)
(-0.120666 -0.0719408 -0.01154)
(-0.000683062 -0.000849743 -0.00201934)
(-0.0294136 0.0789615 -0.262253)
(-0.000743545 0.000634982 -0.00257904)
(-0.187987 0.00513866 -0.156333)
(-3.06714e-12 2.04946e-12 -1.03978e-10)
(-0.00028293 0.00500232 -0.0204574)
(-6.37237e-13 -8.04522e-13 8.81859e-13)
(-0.0654589 0.053492 -0.0773464)
(-0.0393715 -0.0146256 -0.163457)
(-4.62287e-05 -9.34071e-05 -0.000263369)
(-3.91643e-13 3.97497e-11 -1.56215e-10)
(-2.08478e-11 -1.30896e-10 -2.13138e-10)
(-0.030166 -0.146433 -0.223341)
(-0.0481073 0.0812291 -0.0645696)
(-0.0273528 0.00532369 -0.313876)
(-2.44066 -2.99324 1.94094)
(-0.000867084 -0.00238386 -0.0202501)
(5.27183e-13 4.15557e-13 -2.80161e-12)
(-0.000108583 -0.000177342 -0.000518404)
(0.0406456 0.0341614 -0.116073)
(-4.5884e-10 -2.11159e-11 -8.64453e-10)
(3.41139e-13 1.05092e-12 -4.2058e-13)
(8.14662e-12 1.2184e-12 -2.3155e-11)
(-0.1799 -0.0578874 -0.292741)
(2.88368 15.3083 2.0256)
(-0.142477 0.151673 -0.277411)
(-1.09697e-13 -2.86354e-13 -5.79249e-13)
(-0.03935 0.0127437 -0.24941)
(0.0221787 0.0436322 -0.0978587)
(0.0563256 -0.03534 -0.195133)
(-0.0730091 -0.204568 -0.114666)
(-0.0214241 0.0234416 -0.255994)
(-0.113635 -0.131594 -0.0951479)
(-9.54732e-12 6.00358e-11 -1.44679e-10)
(0.000182293 -0.000477708 -0.00156131)
(-0.0873708 -0.106398 -0.00965993)
(-3.02032 14.9225 2.5541)
(0.0117183 0.000341314 -0.403711)
(9.0235e-13 -2.03537e-12 1.24629e-12)
(0.000321741 0.000721823 -0.00215986)
(0.0026755 0.000254357 -0.00690257)
(2.74487 -3.22511 0.0825161)
(5.12669e-11 -7.44649e-10 -3.42775e-09)
(-0.0101572 -0.00986664 -0.020043)
(12.8227 8.49265 12.2246)
(-0.134142 0.0631094 -0.0745473)
(-0.298554 0.0286272 -0.247202)
(-0.000427526 0.000118162 -0.00736087)
(-0.0679444 -0.139297 -0.152371)
(0.18292 -0.10208 -0.335899)
(1.12904e-08 -8.23002e-08 -6.27341e-07)
(-1.8053 2.09316 0.433102)
(0.000792964 6.47755e-05 -0.00108627)
(-0.0604261 0.104271 -0.439125)
(-0.177954 0.0813666 -0.138155)
(0.0507963 -0.0591702 -0.19269)
(0.0996041 -0.136309 -0.00345333)
(0.00140878 0.144811 -0.334245)
(-1.53737e-05 -6.37701e-06 -4.14236e-05)
(-0.00348099 0.017024 -0.0678961)
(-0.0285599 -0.0635707 -0.388243)
(0.0314105 0.0213127 -0.345469)
(0.0807516 -0.227989 -0.0930727)
(0.0693242 0.0400271 -0.311073)
(0.00194168 0.206723 -0.0558365)
(-0.147007 -0.0141628 -0.217862)
(-0.0322482 0.00536279 -0.07047)
(-0.220026 -0.0969162 -0.324399)
(8.25099e-07 9.14352e-07 -4.33643e-06)
(-0.0907807 -0.0458144 -0.196406)
(-0.0234536 -0.11752 -0.182232)
(-0.118322 -0.0580939 -0.0660003)
(-0.690458 0.385976 0.22606)
(3.77556 5.86529 14.6763)
(-3.86924e-11 -1.7092e-10 -6.14857e-10)
(-0.10888 0.0381272 -0.294681)
(-0.503177 0.795859 -2.06364)
(-0.0130038 14.4865 12.4789)
(0.156102 0.184698 -0.34539)
(0.156893 -0.0320209 -0.249816)
(-0.129705 0.0623764 -0.376105)
(0.00694145 0.0776749 -0.230099)
(-0.200417 -0.0263225 -0.0557593)
(0.210806 -0.106662 -0.291313)
(-0.0423024 0.0875839 -0.108061)
(6.57296e-13 7.04447e-12 -3.72631e-11)
(-0.233329 -0.0905393 -0.255967)
(0.00297588 0.0633163 -0.10567)
(-0.00256054 0.0663932 -0.297988)
(-0.28035 0.00755536 -0.279057)
(-0.0131878 -0.00889157 -0.344038)
(-0.168555 -0.294788 -0.132897)
(22.8194 -0.826332 69.2915)
(-0.169708 0.0751459 -0.245953)
(-0.0540105 0.0578613 -0.166537)
(-0.0201086 0.0199568 -0.0755825)
(0.0175664 0.278391 -0.140134)
(-17.6412 31.5601 -19.2233)
(-0.0336464 0.0140645 -0.0961653)
(-0.0365371 -0.0419821 0.00101309)
(-0.00255073 -0.00656888 -0.0184477)
(-0.587083 -0.327648 -0.633777)
(1.1589e-09 -4.34245e-10 -4.08973e-09)
(0.0602425 0.138667 -0.265476)
(-7.86263e-12 7.54903e-12 -2.31396e-11)
(0.0560804 0.000520969 -0.145386)
(-0.226283 -0.188008 -0.0865126)
(3.71766e-05 0.00314717 -0.0115456)
(-0.0313148 -0.0332599 -0.189694)
(0.201653 -0.0182546 -0.195559)
(18.5587 7.97452 0.898978)
(-1.09913 24.3875 -3.23938)
(0.0793297 0.00775681 -0.289715)
(0.140251 0.000601591 -0.328393)
(-22.1023 -0.448488 -1.64255)
(-0.0891694 -0.129856 -0.281361)
(-2.05899e-08 1.19143e-08 -4.47252e-08)
(-0.0267502 0.0161023 -0.360442)
(0.135241 0.0854815 -0.360445)
(-8.255e-13 -1.05662e-12 -6.6051e-11)
(-2.11509e-05 -7.38576e-06 -2.82345e-05)
(-0.00612499 0.013208 -0.0651442)
(-2.61116 0.239228 -4.21383)
(-3.00763e-08 -1.28156e-07 -3.05819e-07)
(0.0487741 0.00609909 -0.188713)
(-0.340288 0.103037 -0.237957)
(1.35246 17.9523 -2.60387)
(8.59351e-09 6.7865e-09 -8.36586e-08)
(0.0202527 0.0845361 -0.0558369)
(-0.0308111 0.166819 -0.415599)
(-6.50866e-07 3.04856e-07 -2.29186e-06)
(-0.571662 0.188262 0.197653)
(-0.0590494 -0.145175 -0.103987)
(-5.60752e-13 1.67136e-12 2.22015e-14)
(-1.0597e-09 7.43619e-11 -1.3447e-09)
(0.00656462 -0.00870134 -0.0435108)
(7.02222e-05 0.00221385 -0.00818645)
(-7.48831e-06 -0.000241432 -0.000866732)
(-0.682065 0.690511 -0.39728)
(-0.00249339 -0.0397216 -0.0864718)
(2.88564e-07 -1.34128e-08 -6.89112e-07)
(-0.115483 0.0481165 -0.0628559)
(1.28015 2.05458 -0.666376)
(-2.66534e-07 -1.52008e-07 -1.64068e-06)
(-1.32964e-07 -3.49095e-07 -1.42968e-06)
(-1.36895e-08 1.7581e-09 -1.03413e-07)
(1.44754e-12 -1.20336e-12 -5.46329e-13)
(-0.134671 0.0288126 -0.115407)
(-2.5986e-08 -1.12231e-08 -1.50342e-07)
(-1.03799e-11 3.32155e-11 -6.86245e-11)
(0.00501648 0.00235597 -0.0180756)
(-1.54388e-06 4.39513e-07 -3.77521e-06)
(-3.28764e-12 -5.3513e-12 -1.35008e-11)
(4.29206e-07 -2.82227e-08 -4.2848e-06)
(2.71426e-08 -1.10954e-07 -6.09986e-07)
(-0.0102259 0.00216445 -0.0757847)
(-17.9652 -2.6858 0.956772)
(4.75237e-08 1.11616e-07 -3.28933e-07)
(0.00773713 0.0144835 -0.246165)
(6.36833e-07 2.11017e-07 -1.2494e-06)
(4.861e-08 -1.72459e-07 -3.75941e-07)
(1.4266 1.14087 -1.15322)
(3.59237e-09 1.02701e-08 -2.54037e-08)
(-0.0585158 -0.0250956 -0.110229)
(0.396456 3.09604 -0.865978)
(9.03765e-10 -6.02349e-10 -2.13391e-09)
(-1.11824 -0.587284 -0.854232)
(-0.236081 -0.0813587 -0.0661126)
(-7.46312e-08 -6.54008e-08 -9.34258e-07)
(0.00350838 0.202899 -0.232247)
(2.23999e-10 -1.19042e-09 -2.30295e-09)
(1.2398 2.92308 0.34707)
(-0.0226647 0.0625287 -0.189713)
(0.0233225 -0.0504176 -0.224931)
(3.34682 10.2916 5.60633)
(-0.684291 -0.884671 -0.372955)
(-1.02107e-08 2.25791e-08 -4.38525e-08)
(0.198343 0.157702 0.0121915)
(-3.55587e-11 -4.61147e-09 -8.1546e-08)
(-1.23618e-07 -6.90627e-08 -1.90457e-07)
(-0.0474131 -0.0242399 -0.393221)
(4.10698 9.09461 4.5136)
(-0.0427409 -0.196522 -0.0573311)
(0.0410205 0.00294619 -0.206112)
(2.6987e-06 9.82836e-06 -1.97422e-05)
(-0.0566469 -0.00809845 -0.207546)
(-0.042359 -0.206995 -0.116508)
(-0.113211 -0.0790001 -0.105682)
(1.15579e-12 -4.96726e-13 -2.11421e-12)
(0.0192688 -0.199134 -0.289099)
(-0.230615 0.0837694 -0.373606)
(-2.02617 13.5728 2.53454)
(-17.484 19.7358 -4.84892)
(1.10249 19.9959 1.23826)
(8.07644 3.88809 4.72472)
(-0.556 8.19717 5.15148)
(-1.13976 5.8511 6.01275)
(0.993118 18.5819 1.37109)
(0.0519805 -0.0174371 0.00663956)
(-0.0794062 0.147856 -0.317889)
(0.0424288 -0.0704575 -0.141756)
(-0.315145 0.0469804 -0.253624)
(0.00422528 0.00675591 -0.0183613)
(19.0555 -1.88872 -1.3042)
(0.000138949 0.00059359 -0.001206)
(-1.6714 2.58674 -0.0989048)
(-0.112395 0.00793539 -0.409688)
(-0.0879246 -0.0326792 -0.26449)
(5.10458e-06 -2.78445e-06 -1.12827e-05)
(-18.6069 3.24122 -0.15088)
(0.00356073 -0.0390385 -0.0569581)
(19.1377 0.346048 13.3399)
(-18.3255 0.27574 -1.24834)
(-0.133052 0.334461 0.0877946)
(-1.23557 20.338 0.903961)
(0.600417 1.07652 -0.310112)
(0.19963 4.66001 5.30072)
(-0.0864677 0.00952696 -0.117786)
(-6.41125e-07 1.42633e-06 -2.9975e-06)
(-0.166209 0.256341 -0.372109)
(-0.0696868 0.0592965 -0.1608)
(11.6724 16.1795 13.8093)
(3.35881e-06 2.00415e-06 -1.59821e-05)
(0.000142338 2.67401e-05 -0.000467364)
(-0.0784945 -0.175663 -0.188967)
(-0.158975 23.2308 -0.865549)
(0.0805999 -0.0808676 -0.17239)
(-0.121599 0.0536539 -0.0305964)
(-0.0928194 -0.176107 -0.08094)
(-0.0588264 -0.0332377 -0.288782)
(-0.0969726 -0.0565053 -0.248114)
(1.55011 21.6968 0.513631)
(0.609702 21.6883 0.780466)
(-0.000292082 0.000157129 -0.00114551)
(1.57329e-14 -3.77806e-13 -7.20464e-13)
(-0.373611 0.224639 -0.131426)
(0.00913117 0.217133 -0.047135)
(1.25394 20.7736 0.589199)
(-2.16044e-09 1.66365e-09 -7.21327e-09)
(-0.019332 -0.209514 -0.293452)
(-0.0251402 -0.0180505 -0.331821)
(-2.15657e-07 1.08042e-08 -5.50026e-07)
(1.90274 20.2894 -0.533949)
(-0.00243393 -0.037997 -0.177472)
(-0.0147072 0.157415 -0.0173528)
(-0.750551 21.7075 2.94143)
(-3.10399e-10 5.67366e-10 -1.96631e-09)
(-0.039736 0.0101168 -0.11591)
(0.369702 9.59169 -1.91394)
(-0.264685 -0.203155 -0.338737)
(-0.0702206 -0.045483 -0.282876)
(0.740104 21.221 -3.98092)
(1.38942e-08 -4.22627e-08 -7.71506e-08)
(-0.00100175 0.000311083 -0.00493183)
(-6.58628e-13 1.44504e-12 1.63416e-13)
(1.77227 2.73823 1.80949)
(0.0863734 0.073483 -0.305789)
(1.71237e-09 2.58557e-09 -1.04028e-08)
(1.23624e-12 -1.00616e-12 -2.2417e-12)
(-0.0682796 -0.0626912 -0.126769)
(-0.0256579 -0.0258127 -0.00186552)
(-0.105954 0.223575 -0.270165)
(4.7682e-07 1.18011e-07 -3.58243e-06)
(0.043317 0.18644 -0.449707)
(-5.7172e-09 -9.24959e-09 -2.93548e-08)
(-0.106115 -0.0579536 -0.147019)
(0.253287 21.9877 -0.26625)
(-0.0254122 -0.0595914 -0.199318)
(-0.212675 -0.00120074 -0.337609)
(-0.883355 18.2591 -0.648745)
(-0.271138 0.0180002 -0.27643)
(-1.65109e-12 -3.94173e-13 -2.52607e-12)
(-0.0806943 0.00186731 -0.277698)
(-0.292534 23.2321 -1.706)
(-0.985584 20.171 -0.315942)
(-1.18683 19.7859 -4.15777)
(0.0413372 -0.0491575 -0.0943231)
(-17.2544 -0.479815 -1.9826)
(0.00145501 0.00370989 -0.0834163)
(-23.7771 -3.26704 0.239864)
(2.27992 1.75359 0.774076)
(-21.503 0.395469 1.80675)
(3.24328e-08 9.18205e-08 -2.46939e-07)
(0.0166951 0.0729541 -0.427475)
(2.30695e-12 -3.44949e-13 -2.39418e-12)
(-8.29892e-07 1.29694e-06 -2.20808e-06)
(-5.07452e-07 -5.26483e-07 -2.65846e-06)
(-21.0601 -1.47761 -0.334821)
(3.80619e-09 -6.85112e-09 -2.26089e-08)
(-0.135402 0.00108003 -0.0348994)
(-7.05159e-05 -6.92622e-06 -0.000692813)
(-0.0966144 -0.0850235 -0.108575)
(-5.85834e-08 -4.65089e-09 -2.79417e-07)
(-0.0615319 -0.200603 -0.14272)
(0.0370031 -0.0387702 -0.466416)
(-0.0753049 0.172742 -0.369565)
(-22.7189 0.741356 0.524458)
(0.00944474 0.00391985 -0.0128382)
(-0.0747311 0.116089 -0.224693)
(0.000117015 -3.05871e-06 -0.000564037)
(0.143964 -18.7757 -0.112105)
(-22.5063 1.89066 -2.65313)
(3.18223 0.26969 4.20834)
(-0.107595 0.0318783 -0.209578)
(-18.1983 4.30397 -0.634608)
(0.081185 0.0117223 -0.221255)
(-0.000245123 4.4658e-05 -0.000373809)
(-0.0309773 0.0832852 0.00273808)
(-17.0125 0.566044 -1.6619)
(1.33532e-07 5.07701e-08 -4.76977e-07)
(-0.0371462 -0.00405262 -0.139963)
(0.083564 -0.0197484 -0.073762)
(0.00515824 -0.0149829 -0.0569007)
(-24.7198 -2.53791 0.238416)
(-0.00019735 -0.00112159 -0.00387927)
(-3.13537e-05 1.21038e-05 -0.000110604)
(0.000106671 9.38124e-06 -0.000162045)
(0.0982203 0.0175031 -0.210589)
(2.56201 0.304061 -1.34667)
(0.000136322 -0.000122481 -0.000350304)
(-2.24143e-11 5.19496e-11 -1.76267e-10)
(-26.4139 -1.83723 -1.40034)
(-21.1873 0.102318 0.683947)
(0.41791 -0.222298 0.0744167)
(0.00492382 -0.00523036 -0.274056)
(0.011739 0.00667148 -0.334572)
(-0.022074 0.00781318 -0.0358631)
(-0.132985 0.216513 -0.194866)
(0.00307802 0.00554294 -0.0109549)
(7.09536e-12 2.20548e-12 -2.34224e-11)
(-0.0849393 -0.0557234 -0.145759)
(-4.95478e-05 9.38738e-05 -0.000773289)
(-0.0373408 -0.061864 -0.28511)
(17.9306 -0.470874 -0.209436)
(22.8066 0.891025 -2.644)
(6.65608e-13 9.99197e-13 -3.24949e-13)
(0.0828338 0.00193749 -0.464095)
(16.5261 0.265484 -0.52104)
(-0.0394485 0.217545 -0.446424)
(3.47982 2.0841 0.718202)
(-0.0339604 -0.0880043 -0.0495634)
(-5.02778e-08 3.39166e-08 -5.36696e-07)
(-0.129465 0.335942 -0.0439141)
(0.0914674 -0.163531 -0.209343)
(1.46147 0.493513 -0.161959)
(0.0434678 0.128052 -0.618061)
(15.5154 -0.0422355 -0.51215)
(-0.0104029 -0.00810354 -0.0792536)
(17.7508 -1.51561 -4.54831)
(-0.00504084 0.0209072 -0.389577)
(0.0388308 -0.0128056 -0.0570653)
(17.4378 -0.509717 1.33988)
(21.8862 0.435479 -2.00907)
(-3.86516 1.24135 4.22454)
(2.16718 0.998281 2.70591)
(-9.01374e-12 4.3294e-12 -5.28394e-11)
(0.0291919 -0.0735941 -0.369873)
(3.57263e-07 -1.10016e-06 -1.37617e-05)
(-0.0396259 -0.000433346 -0.196002)
(19.6218 -0.277317 -0.371907)
(2.5295 17.2306 -0.777372)
(19.732 0.420975 -0.272637)
(20.7133 0.539129 -2.37833)
(-1.34346 -0.414072 0.337456)
(2.11842 1.03668 0.298923)
(20.7924 0.271711 -2.20942)
(-0.0223663 -0.00815352 -0.449793)
(-15.2068 -2.61531 1.64573)
(-0.0144766 0.195221 -0.13772)
(-0.00911077 -0.164304 -0.0253624)
(-0.130466 -0.272322 -0.488701)
(2.18305 21.0961 4.11498)
(-9.85385e-13 -4.11106e-13 -2.16117e-14)
(-0.163345 -0.0281594 -0.234956)
(0.0610783 0.0123769 -0.457891)
(-0.0939194 0.0947452 -0.3598)
(-0.119755 0.100954 0.0156679)
(0.00122079 -0.00200747 -0.00463409)
(-0.0582072 0.268977 -0.298284)
(8.76558e-07 -3.32991e-07 -3.24617e-06)
(3.32849e-07 7.01449e-07 -2.24179e-06)
(0.0226149 0.0304339 -0.0268739)
(-9.70941e-09 2.56797e-08 -9.70517e-08)
(0.146003 0.144378 -0.0660632)
(-5.25632e-08 8.06932e-08 -1.46844e-07)
(-0.0792695 -0.147319 0.0159066)
(0.081265 -0.00261147 -0.297399)
(-0.0104153 -0.0567967 -0.292185)
(-0.0614961 0.0406194 -0.217425)
(-0.0934985 0.165221 0.348445)
(0.0288033 0.0368642 -0.130199)
(-0.13921 0.0631429 -0.118511)
(0.0611947 0.0662667 0.0664787)
(0.130593 0.00806883 -0.0525759)
(-0.0154677 -0.134802 -0.0544258)
(9.15063e-07 7.7954e-07 -6.62287e-06)
(0.35167 -1.0228 -1.10692)
(-0.073211 -0.343028 -0.0405497)
(0.13101 0.0573342 0.134214)
(0.142157 -0.108895 -0.0901067)
(-0.145625 -0.0501553 -0.00894425)
(0.0693501 -0.141687 -0.681909)
(-1.34633e-12 4.75031e-13 -5.93454e-13)
(-0.0893994 -0.147427 0.0120963)
(-0.0358248 0.0417232 -0.164485)
(1.59455e-07 8.75173e-08 -3.77556e-07)
(0.0143751 -0.00616181 -0.0486261)
(0.0113751 -0.234829 -0.0585885)
(0.0119958 -0.170133 -0.292585)
(-0.00678732 -0.0295986 -0.0314395)
(-0.0216085 -0.0574629 -0.103342)
(-0.0816812 -0.141731 -0.139805)
(-0.0871237 -0.071889 0.00451235)
(-1.69968 22.7619 0.764)
(-9.60015e-14 -4.08346e-13 -6.53208e-12)
(0.0727727 -0.0152189 -0.0544784)
(-0.00387836 -0.21019 -0.120754)
(5.91166e-07 1.46612e-06 -3.03821e-06)
(-2.68064e-06 4.04568e-07 -5.13552e-06)
(2.52153 -0.745659 0.970734)
(-0.0410412 -0.103105 -0.069505)
(0.00491574 -0.109371 -0.121117)
(0.0296412 -0.0269818 0.0570551)
(5.89288e-08 5.17341e-08 -1.34488e-07)
(0.0155997 -0.0410228 -0.130352)
(-0.0335552 -0.061722 -0.110115)
(-0.0699994 -0.0621792 -0.122003)
(0.129899 -0.0873606 -0.329135)
(0.0481095 -0.0213742 -0.363739)
(-0.050688 0.0482095 -0.172103)
(-0.0726747 0.00331773 -0.195444)
(-8.19515e-10 5.60541e-08 -1.79985e-07)
(7.91612 21.7382 0.840779)
(2.54686 21.9353 2.90665)
(-0.109113 -0.0218019 0.0783846)
(-0.139489 -0.150775 -0.20321)
(2.77584e-07 1.24138e-07 -3.3071e-07)
(0.0774117 -0.010437 -0.319797)
(1.13605e-06 -7.95822e-07 -3.17658e-06)
(-0.112402 0.0054778 -0.158499)
(-0.0749511 -0.130677 -0.168321)
(0.0663753 -0.0212382 -0.389062)
(0.06408 0.045122 -0.133039)
(14.6974 0.64239 2.28422)
(0.00283013 0.0102693 -0.0371738)
(1.69938 0.0818993 0.654401)
(-1.26663e-12 6.34599e-12 -1.6742e-11)
(0.100357 -0.0722804 -0.280586)
(-0.00370124 0.168595 -0.0298965)
(0.91467 1.63891 0.591342)
(0.00297954 -0.00254815 -0.0120851)
(-0.0209495 -0.00422795 -0.267419)
(-0.0427175 0.117988 -0.38281)
(0.109199 0.172704 -0.35525)
(-0.0833081 0.15946 -0.28841)
(0.0938161 -0.121205 -0.556779)
(0.0380984 0.0201674 -0.0188873)
(-0.0395598 0.04662 0.00477595)
(0.000347255 0.00217103 -0.00591217)
(-0.0455296 -0.086982 -0.159357)
(0.0220509 0.0710141 -0.0712608)
(-0.136129 -0.0414772 -0.259041)
(-0.00112122 0.0693564 -0.0897857)
(0.0141007 -0.0648234 -0.298323)
(0.0023369 -0.00830712 -0.200365)
(12.9745 2.06159 -0.713272)
(-0.12204 0.00880575 -0.609232)
(-0.00925868 0.181429 -0.159613)
(0.963029 22.6325 -6.10383)
(-1.07992e-12 -6.86406e-13 -3.85514e-13)
(-0.00779207 0.00223099 -0.16136)
(0.0559818 0.225209 -0.318607)
(0.0122609 0.0606227 -0.402127)
(0.0478051 0.165864 -0.291534)
(-0.000272887 0.00770655 -0.0379035)
(-0.0762653 -0.0782488 0.00757424)
(-0.100437 -0.106993 -0.0385829)
(-0.0783593 0.00891925 -0.0637763)
(-0.0337154 -0.153022 -0.413874)
(-0.0727037 -0.0179889 -0.235575)
(-0.120738 -0.117129 -0.0868558)
(-0.137729 -0.0411402 -0.00119192)
(-0.0729373 -0.0517351 -0.165371)
(-0.0742845 0.061627 -0.656639)
(0.268156 -0.131804 -0.442277)
(2.24351 -0.529414 -3.31514)
(-0.0806048 -0.0824708 -0.247814)
(-0.144752 0.171503 -0.256429)
(0.0218732 0.0299009 -0.0961792)
(-5.79247 1.45929 -2.80784)
(-0.144951 -0.0717667 -0.122225)
(-0.150039 0.0630809 -0.122508)
(0.0129885 0.00776994 -0.0408291)
(0.00450556 -0.0812791 -0.417649)
(0.973967 0.92717 0.568436)
(0.117957 -0.171439 -0.485364)
(-0.0960166 -0.247389 -0.370607)
(-0.0823733 0.0470118 0.0179143)
(-1.40549e-12 -7.18591e-13 -9.43308e-12)
(-0.00134305 0.0629856 -0.409486)
(-0.0253458 -0.0232664 -0.295605)
(-2.70847e-12 -1.18698e-12 -6.5051e-13)
(0.0037366 0.0100662 -0.27278)
(0.428489 1.25478 0.611163)
(-0.111464 -0.00441995 -0.225363)
(-4.63088e-05 3.8598e-05 -0.000107777)
(-13.4243 38.2414 5.99686)
(0.0255187 -0.0650636 0.038707)
(16.9044 -0.237499 0.749934)
(-0.101615 -0.185431 -0.319637)
(0.0714656 -0.0384386 -0.0184753)
(-1.09882 -0.776808 0.167773)
(0.631234 0.741047 0.304005)
(-0.18677 0.073863 -0.266105)
(0.135493 -0.0953736 -0.279252)
(4.33056e-06 -6.47565e-06 -1.92521e-05)
(2.02016e-07 5.31548e-08 -1.25154e-06)
(0.0669045 -0.241186 -0.275805)
(-1.49606 -13.6699 -2.3402)
(-4.41624e-11 -1.56338e-10 -3.16236e-10)
(0.0792685 -0.00387244 -0.0786722)
(-1.48734e-12 -4.27019e-12 -3.25582e-11)
(-4.46092e-14 1.67559e-12 -2.93033e-12)
(0.143836 -0.0097155 -0.226725)
(-0.0433136 0.0818917 -0.42378)
(-21.5788 -0.908666 -7.13922)
(0.0482811 -0.0119991 -0.310544)
(0.05115 0.111101 -0.00928201)
(-2.45009e-05 -5.28449e-05 -0.000165376)
(1.32515 -15.2371 2.32851)
(-0.00563953 0.0649678 -0.00837651)
(0.0291522 0.185976 -0.278731)
(-2.16564 -11.9054 2.34472)
(-0.100737 0.0114108 -0.0283777)
(0.0643578 -0.0822703 -0.0137989)
(-0.0410733 -0.098588 -0.0138366)
(0.000161404 -2.31816e-05 -0.000320136)
(0.125886 -0.136119 -0.00937654)
(0.130011 -0.0704706 -0.0114326)
(0.0420118 -0.0476507 0.0164814)
(1.10982 18.4558 -2.22095)
(-0.129952 0.0991433 -0.164449)
(1.20767e-07 4.96553e-07 -7.40009e-07)
(0.00228353 0.0640431 -0.255676)
(-0.019679 -0.0528967 -0.0859426)
(-0.0896161 -0.110762 -0.234348)
(-0.0745393 0.00258387 -0.179834)
(1.16028 0.861883 1.10983)